# t (s)	mx ()	my ()	mz ()	B_demagx (T)	B_demagy (T)	B_demagz (T)
0	0.6666667	0.6666667	0.33333334	-0.24018563	-0.24018563	-0.12009282
1.023e-12	0.67679775	0.6591299	0.3278607	-0.24383564	-0.2374703	-0.11812113
2.047e-12	0.68668216	0.6515659	0.32238102	-0.24739677	-0.23474514	-0.11614692
4.095e-12	0.7056895	0.63641256	0.3114184	-0.2542447	-0.22928572	-0.11219734
8.191e-12	0.7407257	0.6062327	0.28949505	-0.2668675	-0.21841256	-0.10429883
1.6383e-11	0.79953676	0.5480318	0.24576858	-0.28805584	-0.19744405	-0.08854512
3.2767e-11	0.87828887	0.45069683	0.15962775	-0.31642854	-0.16237634	-0.057510428
5.922163658856773e-11	0.9256614	0.37734458	0.027605912	-0.3334958	-0.1359491	-0.0099458145
8.685195858803839e-11	0.900394	0.42412522	-0.096997775	-0.3243925	-0.15280317	0.034946203
1.1736382953824932e-10	0.7770306	0.59101385	-0.21662451	-0.27994734	-0.21292955	0.078045145
1.1736382953824932e-10	0.7770306	0.59101385	-0.21662451	-0.27994734	-0.21292955	0.078045145
1.4223676653222212e-10	0.575256	0.7607894	-0.3004663	-0.20725234	-0.274096	0.10825151
1.681468545630812e-10	0.2554608	0.8907282	-0.3759563	-0.09203701	-0.32091016	0.13544895
1.8915296760262677e-10	-0.06643059	0.9007082	-0.42931557	0.023933508	-0.32450575	0.15467313
2.0794866018304666e-10	-0.36417228	0.8029627	-0.47183627	0.13120341	-0.28929016	0.16999243
2.2567732887337356e-10	-0.6095507	0.6086387	-0.50794375	0.21960798	-0.21927938	0.18300118
2.428391948712682e-10	-0.7713673	0.33736014	-0.5396115	0.277907	-0.121543586	0.19441038
2.5975771571658827e-10	-0.8227696	0.02027856	-0.5680133	0.29642612	-0.0073059266	0.20464295
2.766474576987684e-10	-0.7468939	-0.2990938	-0.59387916	0.26908976	0.10775705	0.21396184
2.937089231243362e-10	-0.5434898	-0.56832683	-0.6177569	0.19580767	0.20475587	0.22256449
3.1111551918687133e-10	-0.23535752	-0.7314086	-0.64003783	0.084794246	0.26351073	0.2305918
3.2905997772751076e-10	0.12702298	-0.7395141	-0.6610478	-0.04576364	0.26643097	0.23816127
3.477884708090485e-10	0.46502107	-0.565574	-0.68108845	-0.16753706	0.20376411	0.24538147
3.6741389009264323e-10	0.6766964	-0.2274343	-0.70025396	-0.24379912	0.08193968	0.2522864
3.874621618224472e-10	0.67230976	0.17974833	-0.7181157	-0.2422187	-0.06475945	0.2587216
4.069382768736408e-10	0.45163107	0.5072289	-0.73399466	-0.16271293	-0.18274361	0.26444244
4.255467504905197e-10	0.105818376	0.6552562	-0.7479585	-0.038124077	-0.23607467	0.2694733
4.433648764892407e-10	-0.24854079	0.6000969	-0.76033634	0.08954388	-0.21620196	0.27393275
4.605916751152439e-10	-0.5120458	0.37768307	-0.7714691	0.18447904	-0.13607107	0.27794367
4.77326963323421e-10	-0.62062603	0.06301224	-0.78157073	0.22359817	-0.022701953	0.28158307
4.936574765807485e-10	-0.5572041	-0.2532682	-0.790809	0.20074862	0.091247074	0.2849114
5.096607357290025e-10	-0.34973726	-0.48864552	-0.79931813	0.12600279	0.17604844	0.28797707
5.254033810475723e-10	-0.059821304	-0.58723164	-0.8072054	0.021552326	0.21156687	0.2908187
5.40892924614807e-10	0.23367448	-0.53097165	-0.81453395	-0.08418788	0.19129762	0.293459
5.561818964372114e-10	0.45667988	-0.34173185	-0.8213787	-0.1645319	0.12311861	0.29592502
5.712768554371538e-10	0.55623305	-0.07332806	-0.82778496	-0.20039877	0.026418518	0.29823306
5.861855981833764e-10	0.51316386	0.20359796	-0.833793	-0.18488187	-0.07335195	0.30039763
6.009371442974512e-10	0.34432572	0.4204392	-0.8394468	-0.12405313	-0.15147516	0.30243456
6.155357737877059e-10	0.09649322	0.52634907	-0.84477556	-0.034764424	-0.1896322	0.30435443
6.299947655379404e-10	-0.16669554	0.50003713	-0.84980905	0.060056806	-0.1801526	0.30616784
6.443179170252904e-10	-0.3807667	0.35316586	-0.8545705	0.13718203	-0.12723804	0.30788332
6.585159507904992e-10	-0.4961377	0.12579392	-0.85908294	0.17874771	-0.04532083	0.30950904
6.725822358313168e-10	-0.48901746	-0.12437253	-0.8633618	0.17618245	0.044808738	0.3110506
6.86535156610044e-10	-0.36583075	-0.33724722	-0.8674285	0.13180092	0.1215029	0.31251577
7.003790423210642e-10	-0.15993685	-0.46396023	-0.8712986	0.0576218	0.16715486	0.31391007
7.141204099254829e-10	0.07739476	-0.4779214	-0.87498647	-0.027883662	0.17218477	0.31523874
7.277543789649611e-10	0.28957573	-0.379973	-0.8785024	-0.10432788	0.13689607	0.3165055
7.413001806880205e-10	0.4285382	-0.1966584	-0.881862	-0.15439308	0.07085178	0.31771582
7.547540958156017e-10	0.46467915	0.026795309	-0.88507366	-0.16741386	-0.009653771	0.318873
7.681091246184913e-10	0.3933311	0.237676	-0.8881446	-0.14170872	-0.08562953	0.31997934
7.813891202192951e-10	0.234268	0.38869035	-0.89108837	-0.08440171	-0.14003673	0.32103992
7.945830996675654e-10	0.026509086	0.44746283	-0.89390963	-0.009550652	-0.1612112	0.32205635
8.077068936432052e-10	-0.1817547	0.40378276	-0.8966185	0.065482296	-0.14547421	0.3230323
8.207499289951844e-10	-0.34366345	0.27074093	-0.89921904	0.12381453	-0.09754212	0.32396922
8.337301332048234e-10	-0.42472944	0.08065586	-0.90172035	0.15302086	-0.029058564	0.32487038
8.466396696717192e-10	-0.40935063	-0.12242522	-0.9041262	0.14748019	0.04410717	0.32573718
8.594859121432998e-10	-0.30385253	-0.29331768	-0.9064428	0.1094715	0.10567603	0.32657176
8.722711634402406e-10	-0.13409267	-0.3953849	-0.90867484	0.048310697	0.14244865	0.32737595
8.849935267189848e-10	0.06082215	-0.40828446	-0.9108264	-0.02191291	0.14709607	0.3281511
8.976706748678477e-10	0.2378724	-0.33169746	-0.9129039	-0.0857003	0.119503446	0.3288996
9.102908524776096e-10	0.35887983	-0.18478744	-0.91490924	-0.12929666	0.06657493	0.3296221
9.228618480407719e-10	0.39923716	-0.0012664973	-0.91684693	-0.14383653	0.00045629166	0.33032018
9.353773937623957e-10	0.35244206	0.17815797	-0.91871893	-0.12697726	-0.06418647	0.3309946
9.478501594298108e-10	0.23086712	0.3151583	-0.92053014	-0.08317644	-0.11354473	0.33164716
9.602815764154812e-10	0.062483113	0.38143054	-0.92228335	-0.022511318	-0.13742119	0.3322788
9.726693903101674e-10	-0.11546796	0.36459088	-0.9239809	0.041600615	-0.13135421	0.3328904
9.850169272624873e-10	-0.26482955	0.27033848	-0.92562544	0.09541237	-0.097397126	0.33348286
9.973298401043009e-10	-0.35457483	0.12058153	-0.92722	0.12774566	-0.04344292	0.33405736
1.0096012280704831e-09	-0.36707786	-0.051461827	-0.9287656	0.13225023	0.018540585	0.33461422
1.02184351984323e-09	-0.3015509	-0.20897955	-0.93026596	0.10864228	0.07529082	0.33515477
1.0340513352098299e-09	-0.1736738	-0.3189539	-0.93172204	0.06257093	0.11491221	0.33567935
1.046229274141331e-09	-0.01182534	-0.35932884	-0.93313617	0.004260415	0.12945843	0.33618882
1.0583765541116935e-09	0.14913563	-0.32318735	-0.9345098	-0.053730354	0.11643743	0.33668375
1.0704956794399499e-09	0.2754305	-0.21984664	-0.9358449	-0.099231675	0.079206005	0.3371647
1.082587204802733e-09	0.34133616	-0.072478674	-0.9371427	-0.12297605	0.026112502	0.3376323
1.0946540747722695e-09	0.33437598	0.08711196	-0.9384052	-0.12046845	-0.031384557	0.33808714
1.1066951871200286e-09	0.25758004	0.22525941	-0.93963337	-0.09280053	-0.081156105	0.3385296
1.1187135069597695e-09	0.12846985	0.31358716	-0.9408288	-0.046284914	-0.11297869	0.33896035
1.1307064236069394e-09	-0.02487694	0.3347116	-0.9419922	0.008962625	-0.12058936	0.3393795
1.1426806025458723e-09	-0.17006998	0.2856403	-0.94312567	0.061272547	-0.10291004	0.33978778
1.1546335006293377e-09	-0.27701336	0.17802815	-0.94422966	0.099801935	-0.064139694	0.34018555
1.1665677751793583e-09	-0.3242562	0.03543109	-0.94530565	0.11682252	-0.012765057	0.34057322
1.1784849960311262e-09	-0.30316335	-0.11182697	-0.9463545	0.10922321	0.04028885	0.34095114
1.1903798308317219e-09	-0.21950625	-0.2330115	-0.9473767	0.07908337	0.08394903	0.3413194
1.2022666404092033e-09	-0.09176481	-0.30358702	-0.94837457	0.033060882	0.10937585	0.34167892
1.2141347517417623e-09	0.052615438	-0.30979148	-0.9493477	-0.018956207	0.11161119	0.3420295
1.2259929850062005e-09	0.18344784	-0.25155792	-0.95029765	-0.0660923	0.09063089	0.34237176
1.2378334069813883e-09	0.27376503	-0.14221317	-0.95122457	-0.098631635	0.051236335	0.3427057
1.2496613531572746e-09	0.30564773	-0.0053628255	-0.9521296	-0.110118285	0.0019321102	0.3430317
1.2614792294606786e-09	0.27354947	0.13013798	-0.9530136	-0.09855398	-0.046885908	0.34335023
1.2732853807170694e-09	0.18528508	0.23619533	-0.953877	-0.066754214	-0.085096076	0.34366128
1.285079793448276e-09	0.060180027	0.29135433	-0.95472044	-0.021681568	-0.10496868	0.34396517
1.2968650865059384e-09	-0.07518828	0.28509837	-0.9555447	0.027088715	-0.10271479	0.34426212
1.3086425450501596e-09	-0.1925732	0.21979393	-0.9563505	0.06937997	-0.079187006	0.34455246
1.3204072672541339e-09	-0.26790515	0.11006313	-0.957138	0.096520446	-0.03965337	0.34483618
1.3321656670851641e-09	-0.2863353	-0.020601036	-0.957908	0.103160426	0.0074221087	0.34511358
1.3439196295737762e-09	-0.24498598	-0.14474256	-0.9586613	0.08826316	0.052147623	0.34538502
1.35566701126172e-09	-0.15344822	-0.23666179	-0.95939827	0.055284083	0.08526414	0.34565055
1.3674047430957173e-09	-0.031626277	-0.2777976	-0.96011895	0.011394264	0.10008448	0.3459102
1.3791359257263682e-09	0.09467373	-0.260488	-0.9608241	-0.0341089	0.09384821	0.34616417
1.3908639597675037e-09	0.199148	-0.18928881	-0.96151435	-0.07174873	0.06819668	0.3464129
1.4025872203046846e-09	0.26039696	-0.07989885	-0.9621901	-0.09381541	0.028785832	0.34665632
1.4143075357752088e-09	0.26637304	0.044297922	-0.9628516	-0.095968455	-0.015959585	0.34689462
1.4260226282933168e-09	0.21672665	0.15715864	-0.9634993	-0.078081936	-0.056620866	0.34712797
1.4377347092854632e-09	0.122704335	0.23535135	-0.9641335	-0.044207722	-0.08479202	0.3473565
1.4494428307671212e-09	0.004645827	0.26310992	-0.9647547	-0.0016737913	-0.09479283	0.3475803
1.4611495108304252e-09	-0.11243256	0.23544163	-0.9653633	0.040507026	-0.084824525	0.3477996
1.472853863506345e-09	-0.20406234	0.15899976	-0.9659594	0.07351926	-0.057284184	0.34801435
1.4845571792092994e-09	-0.25147513	0.050533164	-0.9665437	0.090601064	-0.01820601	0.34822482
1.4962567744141452e-09	-0.24542874	-0.06671746	-0.9671161	0.088422686	0.024036862	0.34843108
1.507957932192304e-09	-0.18801282	-0.1680832	-0.96767724	0.06773696	0.060556754	0.34863323
1.5196587665139828e-09	-0.09205808	-0.23251072	-0.9682274	0.033166543	0.08376859	0.34883147
1.5313569356550279e-09	0.021663394	-0.24702697	-0.9687665	-0.007804853	0.08899848	0.34902567
1.5430585916106596e-09	0.12901697	-0.20933582	-0.96929526	-0.046482027	0.07541917	0.34921616
1.5547609713064607e-09	0.20745988	-0.12814775	-0.96981376	-0.074743316	0.04616887	0.34940296
1.5664635395603684e-09	0.24088135	-0.021239458	-0.97032213	-0.086784355	0.007652118	0.34958613
1.5781686106957627e-09	0.22289623	0.08845363	-0.9708209	-0.0803047	-0.031867936	0.34976584
1.5898729173118218e-09	0.15807667	0.17767543	-0.9713101	-0.056951612	-0.064012624	0.3499421
1.6015788038794934e-09	0.06083062	0.22786848	-0.97178996	-0.021915957	-0.0820961	0.35011497
1.6132875262251707e-09	-0.04777166	0.22896945	-0.9722608	0.017211098	-0.082492754	0.35028458
1.625001316573952e-09	-0.14453529	0.18143857	-0.97272277	0.052072946	-0.0653684	0.35045105
1.6367168606330303e-09	-0.20903532	0.09608525	-0.97317624	0.075310916	-0.034617446	0.35061443
1.6484350971998797e-09	-0.22801687	-0.008379115	-0.97362113	0.08214955	0.0030188144	0.3507747
1.6601581459488869e-09	-0.19808143	-0.109430134	-0.9740579	0.07136446	0.039425313	0.35093206
1.6718862198895021e-09	-0.1263006	-0.1855367	-0.9744867	0.045503378	0.066844866	0.35108656
1.6836173644796076e-09	-0.028627083	-0.22076167	-0.97490764	0.01031372	0.07953567	0.3512382
1.695350912173702e-09	0.07364438	-0.20814894	-0.9753208	-0.026532479	0.07499157	0.35138708
1.7070890982126754e-09	0.15853205	-0.15108141	-0.9757264	-0.05711568	0.054431375	0.35153317
1.7188353384027438e-09	0.20805146	-0.062409062	-0.97612494	-0.074956454	0.022484638	0.3516767
1.73058483984351e-09	0.21201001	0.038316485	-0.97651607	-0.07638264	-0.013804602	0.35181767
1.7423395475042028e-09	0.1701946	0.12922719	-0.9769003	-0.061317444	-0.04655777	0.35195607
1.7540995040763862e-09	0.092266016	0.19082832	-0.9772777	-0.03324146	-0.06875132	0.3520921
1.765865444424646e-09	-0.0044291015	0.21020047	-0.9776483	0.0015957097	-0.0757307	0.3522256
1.7776369570004082e-09	-0.09868023	0.1837227	-0.9780124	0.035552353	-0.06619133	0.3523568
1.789414399483466e-09	-0.17006712	0.11776789	-0.97837013	0.06127151	-0.04242923	0.35248563
1.801197978348704e-09	-0.20338131	0.027211647	-0.97872144	0.0732739	-0.009803769	0.3526122
1.8129893354096657e-09	-0.19187959	-0.06790217	-0.9790667	0.06913008	0.024463687	0.35273665
1.8247871061573711e-09	-0.1386715	-0.14674574	-0.97940594	0.049960352	0.052869327	0.35285884
1.8365911170422116e-09	-0.055954155	-0.19230238	-0.9797393	0.020159075	0.0692824	0.35297894
1.8484032425063857e-09	0.037773304	-0.19504419	-0.98006684	-0.013608905	0.07027021	0.3530969
1.8602224511942467e-09	0.12178979	-0.15493603	-0.98038876	-0.04387823	0.055820107	0.3532129
1.872051053057134e-09	0.17776193	-0.081351355	-0.9807052	-0.06404379	0.029309139	0.35332692
1.8838875224010637e-09	0.19371435	0.00905207	-0.9810162	-0.06979109	-0.0032612653	0.35343897
1.895730470268874e-09	0.16665843	0.096084885	-0.981322	-0.06004344	-0.034617312	0.35354912
1.9075814746618657e-09	0.10314757	0.16055556	-0.9816224	-0.037161842	-0.057844706	0.35365736
1.919441070734151e-09	0.017729335	0.18847592	-0.98191786	-0.0063874964	-0.06790381	0.35376382
1.9313098986319206e-09	-0.07034968	0.17412068	-0.9822082	0.02534547	-0.06273192	0.35386842
1.943187499323715e-09	-0.14145371	0.121231094	-0.9824937	0.050962724	-0.04367695	0.35397127
1.9550741985596962e-09	-0.1799507	0.042097423	-0.9827745	0.06483236	-0.015166794	0.35407245
1.9669681346087336e-09	-0.17766419	-0.045247618	-0.98305047	0.06400858	0.01630174	0.3541719
1.97887135668971e-09	-0.13564087	-0.121160455	-0.9833218	0.04886848	0.0436515	0.35426962
1.9907853122366996e-09	-0.06380788	-0.16876593	-0.9835887	0.022988604	0.060802724	0.35436577
2.002706924273368e-09	0.021288125	-0.17771873	-0.9838511	-0.0076696523	0.06402822	0.3544603
2.014641664884262e-09	0.10034294	-0.14649385	-0.98410916	-0.036151394	0.05277857	0.35455328
2.026585068101187e-09	0.15555587	-0.082655214	-0.9843631	-0.056043424	0.02977889	0.35464478
2.0385380352615523e-09	0.174748	-0.0010639989	-0.9846127	-0.062957935	0.00038333586	0.35473466
2.0505017364960458e-09	0.15402745	0.079561085	-0.9848582	-0.055492766	-0.028664142	0.35482317
2.0624745479025194e-09	0.09861467	0.14090371	-0.9850997	-0.035528734	-0.05076457	0.35491014
2.074457953111017e-09	0.021564882	0.16925019	-0.9853372	-0.007769361	-0.06097719	0.35499573
2.0864536617423093e-09	-0.059276775	0.15854456	-0.9855709	0.021356143	-0.057120185	0.35507995
2.0984600034923712e-09	-0.1253592	0.11172298	-0.9858008	0.04516422	-0.04025138	0.35516277
2.110474778567523e-09	-0.16171536	0.03999123	-0.9860268	0.058262553	-0.014407977	0.3552442
2.122502649657592e-09	-0.16038054	-0.039881174	-0.9862493	0.05778165	0.0143683255	0.35532433
2.134542252366271e-09	-0.12212377	-0.109391384	-0.9864682	0.043998558	0.039411355	0.3554032
2.1465925970260828e-09	-0.05624107	-0.15261978	-0.9866834	0.020262443	0.054985616	0.35548076
2.1586541128346343e-09	0.021680579	-0.15989919	-0.98689526	-0.0078110453	0.057608232	0.35555708
2.1707267734987294e-09	0.09342374	-0.1299939	-0.9871037	-0.033658557	0.046834	0.3556322
2.1828117659626973e-09	0.14239903	-0.07031391	-0.98730874	-0.051303297	0.025332585	0.35570604
2.1949091187095875e-09	0.15747795	0.0048715263	-0.9875105	-0.05673591	-0.0017551059	0.35577875
2.2070184728678407e-09	0.13555837	0.07781247	-0.98770905	-0.04883875	-0.02803415	0.35585028
2.219140001566154e-09	0.08222924	0.13146564	-0.9879044	-0.029625423	-0.047364235	0.35592067
2.231272647083577e-09	0.010397671	0.15348254	-0.9880967	-0.0037460565	-0.05529645	0.35598993
2.2434198861088603e-09	-0.06283509	0.1390784	-0.98828596	0.022638127	-0.050106946	0.35605812
2.255578106178474e-09	-0.12016939	0.092099614	-0.98847204	0.043294437	-0.033181503	0.35612518
2.267750922645531e-09	-0.14826663	0.024036137	-0.9886553	0.053417265	-0.008659702	0.3561912
2.2799373175047037e-09	-0.14081822	-0.04872702	-0.98883563	0.050733767	0.017555293	0.35625613
2.2921357783007036e-09	-0.100031644	-0.10884272	-0.98901314	0.036039244	0.039213687	0.35632008
2.304347295191798e-09	-0.036026783	-0.14216049	-0.98918784	0.012979672	0.05121736	0.35638303
2.316571521217709e-09	0.03563453	-0.14105882	-0.98935974	-0.0128383525	0.050820448	0.35644495
2.32880950319208e-09	0.09772017	-0.10622313	-0.98952895	-0.035206467	0.0382699	0.35650593
2.3410603201772697e-09	0.13545427	-0.04642342	-0.9896955	-0.048801254	0.016725358	0.35656592
2.3533244542509673e-09	0.14006707	0.023659054	-0.9898594	-0.050463147	-0.008523847	0.356625
2.365603019912923e-09	0.11084979	0.087013975	-0.99002075	-0.03993679	-0.031349257	0.35668314
2.377894049530232e-09	0.055280425	0.12840854	-0.99017954	-0.019916344	-0.046262823	0.35674033
2.3902003950837194e-09	-0.012871245	0.13809207	-0.99033576	0.004637232	-0.049751587	0.35679662
2.40251964863642e-09	-0.07689138	0.1140967	-0.99048966	0.027702305	-0.04110658	0.35685208
2.4148550542975773e-09	-0.12125707	0.06266563	-0.9906412	0.0436863	-0.022577073	0.35690662
2.427203041428219e-09	-0.135366	-0.003301547	-0.9907902	0.048769444	0.0011894761	0.35696033
2.4395641978337326e-09	-0.116144635	-0.067486875	-0.99093693	0.041844405	0.024314065	0.35701323
2.4519403992843203e-09	-0.06871223	-0.11417691	-0.99108136	0.024755534	0.041135475	0.3570652
2.4643326011509134e-09	-0.005068341	-0.13209888	-0.9912236	0.0018260138	0.04759238	0.35711646
2.476737388812443e-09	0.058880974	-0.117180645	-0.9913636	-0.021213545	0.04221766	0.3571669
2.4891570812268308e-09	0.1073354	-0.07351281	-0.99150145	-0.03867063	0.026485078	0.35721654
2.5015940408230497e-09	0.12847486	-0.012253265	-0.99163705	-0.046286725	0.004414587	0.3572654
2.5140462209801463e-09	0.11736416	0.051153123	-0.9917707	-0.042283773	-0.018429365	0.35731357
2.5265133847909163e-09	0.077162765	0.100876324	-0.99190223	-0.02780008	-0.03634356	0.35736096
2.5389946890893107e-09	0.018273866	0.12465696	-0.99203163	-0.0065836795	-0.044911213	0.3574076
2.551490793672692e-09	-0.044324614	0.116857834	-0.9921591	0.015969202	-0.042101357	0.35745353
2.5640035921218985e-09	-0.0948726	0.07981607	-0.99228454	0.03418055	-0.02875601	0.3574987
2.5765315896880576e-09	-0.120777816	0.023215553	-0.9924081	0.043513644	-0.008364063	0.35754326
2.5890741536400944e-09	-0.11579956	-0.038409837	-0.99252975	0.04172008	0.013838235	0.35758704
2.601633268645325e-09	-0.081571564	-0.0894049	-0.99264944	0.029388472	0.032210656	0.35763013
2.6142084702448676e-09	-0.027134895	-0.11694786	-0.99276733	0.009776117	0.04213379	0.35767263
2.6267989968737364e-09	0.033405047	-0.11430991	-0.9928834	-0.012035118	0.041183397	0.3577144
2.6394057818275107e-09	0.084525384	-0.08252995	-0.9929977	-0.03045267	0.02973376	0.35775566
2.6520288504172783e-09	0.1132551	-0.030092668	-0.9931102	-0.040803365	0.010841738	0.35779613
2.6646690428097124e-09	0.11248931	0.02929856	-0.993221	-0.04052747	-0.01055564	0.3578361
2.6773241723196342e-09	0.0827829	0.08026582	-0.99332994	-0.029824894	-0.028918043	0.35787538
2.689996275550419e-09	0.032149583	0.109766506	-0.99343735	-0.011582801	-0.039546505	0.35791403
2.7026846931955745e-09	-0.026054243	0.11042375	-0.9935431	0.009386782	-0.0397833	0.35795212
2.715389677416347e-09	-0.07663546	0.082416005	-0.9936472	0.027610097	-0.02969271	0.3579896
2.728112163569178e-09	-0.10652669	0.033373192	-0.9937497	0.038379267	-0.012023641	0.35802656
2.740851863600262e-09	-0.10817399	-0.02365428	-0.9938506	0.038972754	0.008522127	0.35806295
2.7536082974761117e-09	-0.08148651	-0.07364501	-0.9939499	0.02935783	0.02653271	0.35809872
2.766382894474831e-09	-0.03380478	-0.10356827	-0.99404776	0.012179133	0.03731341	0.35813397
2.779171932542774e-09	0.022055717	-0.1057886	-0.9941441	-0.007946199	0.03811335	0.35816866
2.7919782966570856e-09	0.07126751	-0.08006301	-0.99423885	-0.025676146	0.028844975	0.35820282
2.80480295991668e-09	0.1008918	-0.03353094	-0.99433225	-0.03634914	0.012080474	0.35823646
2.8176437300753413e-09	0.10330121	0.021202317	-0.99442416	-0.037217196	-0.0076387376	0.35826957
2.8305033255127344e-09	0.078183755	0.0694835	-0.99451464	-0.028167918	-0.025033407	0.35830218
2.843380209524435e-09	0.03257464	0.09850021	-0.9946038	-0.0117359385	-0.0354875	0.35833424
2.8562755931977806e-09	-0.021076385	0.10072056	-0.99469155	0.007593367	-0.036287446	0.35836592
2.8691884854660657e-09	-0.0682684	0.075870916	-0.994778	0.024595633	-0.027334657	0.35839704
2.8821196639641916e-09	-0.0963785	0.030966215	-0.994863	0.034723096	-0.011156459	0.35842767
2.89506808162814e-09	-0.098048106	-0.02162513	-0.9949468	0.03532462	0.007791068	0.35845786
2.9080342692382135e-09	-0.07314836	-0.06757447	-0.99502915	0.026353778	0.024345625	0.35848755
2.9210192782601625e-09	-0.02875846	-0.09449004	-0.9951104	0.010361053	0.034042723	0.3585168
2.934022007569066e-09	0.022795955	-0.09527154	-0.99519026	-0.0082128905	0.03432428	0.3585456
2.947043563570917e-09	0.067353606	-0.070022576	-0.995269	-0.024266051	0.025227625	0.3585739
2.9600845022867302e-09	0.092795394	-0.025969593	-0.99534655	-0.03343218	0.009356283	0.35860187
2.9731419276298257e-09	0.0923628	0.024548907	-0.9954228	-0.033276323	-0.008844441	0.35862935
2.9862188414477053e-09	0.06649226	0.067548275	-0.9954979	-0.023955727	-0.024336185	0.3586564
2.9993144178500206e-09	0.022639288	0.091237076	-0.9955719	-0.008156447	-0.032870755	0.3586831
3.0124294240035277e-09	-0.026829144	0.08928575	-0.9956447	0.009665962	-0.032167733	0.35870934
3.025563628096115e-09	-0.06809548	0.0625459	-0.9957164	0.024533335	-0.022533938	0.35873508
3.0387162560105806e-09	-0.08975483	0.018774768	-0.9957869	0.032336727	-0.006764144	0.35876054
3.051888090632734e-09	-0.085992746	-0.029584909	-0.99585646	0.030981332	0.010658804	0.35878557
3.0650791578419047e-09	-0.058173295	-0.06891746	-0.99592483	0.020958584	0.024829475	0.35881025
3.0782894238491663e-09	-0.014413476	-0.08827136	-0.99599224	0.0051928647	0.031802263	0.3588345
3.091518624926139e-09	0.03274802	-0.0824321	-0.9960586	-0.011798404	0.029698506	0.3588584
3.1047671775062226e-09	0.0699293	-0.053360265	-0.99612385	-0.025194017	0.019224552	0.3588819
3.118035774370598e-09	0.08670334	-0.009586418	-0.9961881	-0.031237341	0.0034537797	0.3589051
3.1313239749441793e-09	0.07854402	0.03625086	-0.99625134	-0.028297717	-0.013060402	0.35892788
3.1446318904921465e-09	0.048085548	0.07104179	-0.9963137	-0.017324183	-0.025594823	0.35895032
3.1579596175720612e-09	0.004321699	0.084960386	-0.99637496	-0.0015570149	-0.030609395	0.35897243
3.171307990854798e-09	-0.040018555	0.07426393	-0.99643534	0.014417822	-0.02675569	0.35899416
3.184675033667169e-09	-0.07215009	0.04233824	-0.9964948	0.025994118	-0.015253555	0.35901558
3.198063518527259e-09	-0.08294422	-0.0013372098	-0.99655336	0.029883012	0.00048176787	0.35903668
3.2114712854127244e-09	-0.06953211	-0.04395457	-0.996611	0.02505092	0.015835883	0.35905743
3.224900280903461e-09	-0.036108524	-0.07314266	-0.9966677	0.013009122	0.026351724	0.3590778
3.2383498074836288e-09	0.0073340274	-0.08055182	-0.9967235	-0.0026422918	0.029021082	0.35909796
3.2518190790670404e-09	0.04796257	-0.064283915	-0.9967785	-0.017279878	0.023160107	0.35911775
3.2653096836690994e-09	0.07389515	-0.029402003	-0.99683255	-0.026622828	0.010592906	0.35913724
3.2788208053632554e-09	0.0776782	0.013597332	-0.9968858	-0.027985781	-0.0048988247	0.35915643
3.2923525871481843e-09	0.058468837	0.051919747	-0.9969382	-0.02106506	-0.018705565	0.35917532
3.3059044296196537e-09	0.022242028	0.07427425	-0.99698985	-0.008013323	-0.02675941	0.35919392
3.3194770456134328e-09	-0.020031992	0.07422132	-0.99704057	0.0072170943	-0.026740339	0.35921222
3.3330714344901853e-09	-0.05568566	0.052052684	-0.99709064	0.020062342	-0.018753458	0.35923025
3.346687415196438e-09	-0.07414256	0.014666194	-0.9971398	0.026711963	-0.0052839126	0.35924798
3.3603238988302403e-09	-0.070081264	-0.026537044	-0.9971883	0.025248766	0.009560725	0.3592654
3.373982490730664e-09	-0.04500222	-0.05912095	-0.99723595	0.01621333	0.021300001	0.35928255
3.3876634611825006e-09	-0.006730182	-0.07335912	-0.997283	0.0024247395	0.026429709	0.35929957
3.401364166149844e-09	0.032979533	-0.06516943	-0.9973291	-0.011881813	0.02347914	0.35931617
3.4150863477407234e-09	0.062057655	-0.037320875	-0.9973746	-0.022358036	0.013445906	0.35933256
3.4288307675956643e-09	0.07178146	0.0014620647	-0.9974193	-0.025861312	-0.0005267504	0.35934865
3.4425962740982322e-09	0.059421252	0.039191242	-0.99746346	-0.021408193	-0.014119759	0.35936457
3.4563835249285807e-09	0.029042196	0.064318694	-0.9975068	-0.010463275	-0.02317264	0.3593802
3.4701939378816134e-09	-0.009794237	0.0692768	-0.9975494	0.0035286522	-0.024958936	0.35939553
3.484026660201439e-09	-0.045001168	0.052785404	-0.99759144	0.01621295	-0.019017443	0.35941064
3.4978818303477968e-09	-0.06572863	0.02021565	-0.99763274	0.023680605	-0.007283263	0.35942554
3.5117586227045546e-09	-0.06572301	-0.018117351	-0.9976735	0.023678582	0.0065272907	0.35944024
3.525657611582746e-09	-0.045248143	-0.05020427	-0.99771345	0.01630193	0.018087514	0.35945463
3.5395796194371667e-09	-0.010956703	-0.066099815	-0.99775285	0.003947464	0.023814335	0.35946882
3.5535242091827463e-09	0.0262285	-0.061023906	-0.9977917	-0.009449562	0.021985594	0.35948282
3.567490070783505e-09	0.054575738	-0.036840074	-0.9978298	-0.01966246	0.013272682	0.35949656
3.5814794159713767e-09	0.065259114	-0.0014158832	-0.99786735	-0.02351145	0.00051011215	0.35951006
3.5954916888584927e-09	0.05511895	0.033895493	-0.99790436	-0.019858168	-0.0122118145	0.35952342
3.6095271376277268e-09	0.027637396	0.057884324	-0.9979407	-0.009957157	-0.020854473	0.35953647
3.623586042125552e-09	-0.008213069	0.063051865	-0.9979765	0.0029589916	-0.022716226	0.3595494
3.6376678158323507e-09	-0.04086763	0.04798481	-0.99801177	0.014723726	-0.017287891	0.3595621
3.6517725864039285e-09	-0.059897434	0.017771795	-0.99804634	0.021579752	-0.0064027943	0.3595746
3.6658999279459036e-09	-0.05935568	-0.017674474	-0.9980805	0.02138457	0.006367732	0.35958683
3.6800510118378023e-09	-0.039667107	-0.046851203	-0.998114	0.014291203	0.016879477	0.35959893
3.6942250211622542e-09	-0.0074513075	-0.06039122	-0.9981471	0.0026845455	0.021757651	0.35961086
3.7084237815195434e-09	0.026671227	-0.054096438	-0.9981795	-0.009609068	0.01948978	0.35962254
3.722646405696751e-09	0.051553037	-0.03026982	-0.9982115	-0.018573448	0.010905564	0.35963407
3.736892345570263e-09	0.059175726	0.0030718222	-0.9982429	-0.02131974	-0.0011067113	0.3596454
3.7511621352187535e-09	0.047260918	0.034868937	-0.99827385	-0.01702709	-0.012562526	0.3596565
3.765455390826388e-09	0.019982314	0.054675203	-0.99830425	-0.0071991966	-0.019698296	0.35966748
3.779773788168834e-09	-0.013457399	0.05610507	-0.9983342	0.0048484104	-0.020213448	0.3596783
3.7941163587340344e-09	-0.04189682	0.03891928	-0.99836373	0.0150945205	-0.014021777	0.35968888
3.808482216982379e-09	-0.05594508	0.009073732	-0.9983927	0.020155806	-0.0032690698	0.35969937
3.82287322934869e-09	-0.05110392	-0.023316057	-0.99842113	0.01841164	0.008400273	0.35970962
3.837288539366028e-09	-0.029236898	-0.047375537	-0.99844927	0.010533422	0.017068384	0.35971975
3.851727330660759e-09	0.0020903172	-0.0551341	-0.9984768	-0.0007530962	0.019863624	0.35972965
3.866191740308573e-09	0.032204658	-0.044190392	-0.9985039	-0.011602644	0.015920844	0.35973942
3.880680240587887e-09	0.05093956	-0.018487046	-0.9985307	-0.018352427	0.006660484	0.35974908
3.895194506492958e-09	0.05208997	0.01306865	-0.9985569	-0.018766893	-0.0047083525	0.3597585
3.909734741841814e-09	0.03549012	0.03966109	-0.9985827	-0.012786325	-0.014289036	0.3597678
3.92429906384903e-09	0.0070423703	0.05227046	-0.99860823	-0.0025372142	-0.01883192	0.359777
3.9388893439013405e-09	-0.023353016	0.04676007	-0.9986332	0.008413588	-0.016846646	0.35978597
3.953504301574477e-09	-0.04521731	0.025261726	-0.99865776	0.016290821	-0.009101255	0.35979486
3.968144665807977e-09	-0.05112057	-0.0045983233	-0.9986819	0.01841764	0.0016566766	0.35980356
3.9828109071999605e-09	-0.039228138	-0.0323744	-0.99870574	0.014133051	0.011663798	0.35981214
3.997502149267349e-09	-0.0139056565	-0.048444357	-0.9987291	0.005009908	0.017453456	0.35982057
4.012219218139427e-09	0.015844882	-0.04736251	-0.9987521	-0.0057085687	0.017063688	0.35982883
4.026962363919937e-09	0.03956061	-0.029732598	-0.9987747	-0.014252832	0.010712014	0.359837
4.041731154692463e-09	0.048997708	-0.0019605686	-0.998797	-0.017652817	0.00070635055	0.35984498
4.056527186534452e-09	0.04102089	0.02604203	-0.99881893	-0.014778942	-0.009382381	0.3598529
4.07134845913745e-09	0.018680036	0.04437302	-0.99884045	-0.0067300135	-0.015986642	0.35986066
4.086195382070813e-09	-0.009911271	0.046662603	-0.9988616	0.003570817	-0.016811527	0.3598683
4.101068669407317e-09	-0.034498017	0.03231012	-0.99888235	0.012428892	-0.011640638	0.35987577
4.115968454371719e-09	-0.04635519	0.0066611264	-0.99890286	0.016700776	-0.0023998604	0.3598832
4.130894772013136e-09	-0.041404184	-0.02094438	-0.99892294	0.014917035	0.007545808	0.3598904
4.145847563077651e-09	-0.021649648	-0.040555358	-0.99894273	0.0077999	0.01461122	0.3598975
4.160827054444297e-09	0.0055835494	-0.04520397	-0.99896216	-0.0020116325	0.016286016	0.3599045
4.175833674334765e-09	0.030336466	-0.033407416	-0.9989813	-0.010929573	0.0120359715	0.3599114
4.190867908500291e-09	0.043649234	-0.009670686	-0.9990002	-0.015725877	0.0034841395	0.35991818
4.20592888288122e-09	0.040820636	0.017190311	-0.9990186	-0.014706794	-0.0061932984	0.35992485
4.2210166374829e-09	0.023103915	0.037305705	-0.9990368	-0.008323842	-0.0134404395	0.3599314
4.236131956840318e-09	-0.002795866	0.043381754	-0.9990547	0.0010072902	-0.015629511	0.35993785
4.2512750657878135e-09	-0.027225563	0.03336841	-0.9990723	0.0098087825	-0.012021918	0.35994422
4.266445259546316e-09	-0.041170713	0.011186425	-0.9990895	0.014832919	-0.004030227	0.3599504
4.28164238442767e-09	-0.039600022	-0.014767237	-0.9991066	0.014267033	0.0053203166	0.35995656
4.2968687390658625e-09	-0.023307674	-0.034779668	-0.9991232	0.008397251	0.012530364	0.35996252