# t (s)	mx ()	my ()	mz ()	B_demagx (T)	B_demagy (T)	B_demagz (T)
0	0.6666667	0.6666667	0.33333334	-0.24018563	-0.24018563	-0.12009282
1.023e-12	0.67612815	0.65775687	0.3319738	-0.2435944	-0.23697561	-0.119603
2.047e-12	0.68544066	0.64874023	0.33061653	-0.2469495	-0.2337271	-0.119114004
4.095e-12	0.70358914	0.6304248	0.327913	-0.253488	-0.22712845	-0.11813998
8.191e-12	0.7379742	0.59275264	0.32254976	-0.2658762	-0.21355599	-0.11620772
1.6383e-11	0.79909164	0.513915	0.31200004	-0.28789547	-0.1851525	-0.11240689
3.2767e-11	0.8912891	0.3472251	0.29161346	-0.32111225	-0.1250977	-0.105062045
5.621023001057162e-11	0.95886564	0.104044795	0.2641049	-0.34545857	-0.037485097	-0.095151305
8.133943980560886e-11	0.9611827	-0.14165623	0.23677316	-0.3462934	0.051035687	-0.08530426
1.0853296738132262e-10	0.90375835	-0.37319055	0.20964174	-0.32560462	0.13445252	-0.0755294
1.3820888352524016e-10	0.7962608	-0.5766731	0.1828031	-0.28687555	0.20776287	-0.06586
1.7089060114247477e-10	0.65147984	-0.74237525	0.15637468	-0.23471412	0.26746178	-0.056338422
2.0726040799961654e-10	0.483917	-0.86532974	0.1304946	-0.17434487	0.31175965	-0.047014385
2.4821021497109535e-10	0.30849466	-0.94537574	0.105337225	-0.11114397	0.34059846	-0.037950724
2.948420341110243e-10	0.13970841	-0.9868607	0.08116382	-0.05033393	0.35554463	-0.029241577
3.4854096973275655e-10	-0.009401213	-0.99825394	0.058316883	0.0033870544	0.35964936	-0.021010315
4.1077445479002973e-10	-0.12749867	-0.9911374	0.0372952	0.04593502	0.3570854	-0.013436655
4.829008229224436e-10	-0.20583175	-0.97840905	0.018684775	0.07415674	0.35249966	-0.0067317206
5.648355553295552e-10	-0.23869452	-0.97108954	0.0031825053	0.08599649	0.3498626	-0.001146588
6.544781548872155e-10	-0.22618762	-0.97404397	-0.008810923	0.08149052	0.350927	0.0031743858
7.496317758571815e-10	-0.17392366	-0.9846024	-0.017571637	0.06266093	0.35473096	0.006330682
8.499032954420068e-10	-0.08836491	-0.99580413	-0.02378889	0.03183597	0.35876673	0.008570624
9.56475478138627e-10	0.025820402	-0.9992705	-0.02813887	-0.009302534	0.36001563	0.010137828
1.0717028724556183e-09	0.16559426	-0.9857021	-0.031144246	-0.05966004	0.35512716	0.0112206
1.1999157565926566e-09	0.329411	-0.94360316	-0.03319152	-0.11867968	0.33995986	0.011958189
1.3525246169376292e-09	0.52071273	-0.85303134	-0.034578614	-0.18760157	0.3073288	0.01245793
1.3525246169376292e-09	0.52071273	-0.85303134	-0.034578614	-0.18760157	0.3073288	0.01245793
1.5121356519692819e-09	0.70052934	-0.7127476	-0.035351206	-0.25238562	0.25678754	0.012736276
1.668887142136747e-09	0.8435962	-0.5357866	-0.035751015	-0.3039295	0.19303235	0.01288032
1.8122760315850968e-09	0.9368919	-0.34776622	-0.03594933	-0.33754194	0.12529266	0.012951767
1.95292273852124e-09	0.98839813	-0.14754365	-0.036058847	-0.35609853	0.053156793	0.012991224
2.0915353025746838e-09	0.9977509	0.05646661	-0.03612019	-0.3594681	-0.0203437	0.013013326
2.2290727134278368e-09	0.9657783	0.2568371	-0.03615497	-0.34794903	-0.09253287	0.013025856
2.366328095416343e-09	0.89411265	0.4463788	-0.03617506	-0.3221295	-0.16082063	0.013033094
2.5029270180622923e-09	0.7862321	0.6168709	-0.036186554	-0.2832625	-0.22224526	0.013037235
2.6404822217739847e-09	0.6451879	0.7631663	-0.03619327	-0.23244727	-0.27495235	0.013039654
2.7774309959614572e-09	0.47822952	0.87748873	-0.036196638	-0.1722958	-0.31614023	0.013040867
2.9142653808956552e-09	0.29181176	0.9557906	-0.036199007	-0.10513349	-0.34435076	0.013041722
3.0509199266300694e-09	0.09370376	0.99494183	-0.036200244	-0.033759445	-0.35845608	0.013042167
3.187476539237048e-09	-0.108091414	0.9934817	-0.036200915	0.038943004	-0.35793	0.013042409
3.3240364025740927e-09	-0.3054865	0.9515081	-0.036201466	0.11006019	-0.34280783	0.013042606
3.4603672283329457e-09	-0.49013132	0.87089646	-0.036202114	0.17658374	-0.31376517	0.013042841
3.5975310547466597e-09	-0.6557868	0.7540777	-0.03620212	0.23626585	-0.2716779	0.013042844
3.733348181463788e-09	-0.7932508	0.607818	-0.036201958	0.28579116	-0.21898371	0.013042783
3.869343490121191e-09	-0.89882886	0.43680212	-0.036201835	0.32382864	-0.15737036	0.0130427405
4.005688337440511e-09	-0.96818113	0.24761832	-0.036201697	0.3488148	-0.08921154	0.01304269
4.141893417191299e-09	-0.99816334	0.048574988	-0.036201775	0.35961673	-0.017500523	0.013042718
4.278451511714393e-09	-0.9875697	-0.15295589	-0.036201846	0.35580003	0.055106707	0.013042744
4.41499480653989e-09	-0.93671024	-0.348229	-0.03620192	0.3374765	0.1254594	0.013042771
4.551434374319606e-09	-0.84774065	-0.5291741	-0.036201857	0.30542266	0.19064999	0.013042748
4.6874665549375245e-09	-0.7246754	-0.6881387	-0.036201887	0.2610849	0.24792153	0.013042759
4.824229783882197e-09	-0.5713964	-0.8198753	-0.03620176	0.2058618	0.29538336	0.013042713
4.960890556839332e-09	-0.39488563	-0.9180168	-0.036201913	0.14226878	0.33074164	0.013042768
5.097758298532555e-09	-0.20194653	-0.9787273	-0.036201753	0.072756976	0.3526143	0.013042711
5.234028782933272e-09	-0.0016192707	-0.9993432	-0.03620177	0.0005833883	0.3600418	0.013042716
5.370542374794605e-09	0.19912665	-0.97930485	-0.036201812	-0.07174104	0.35282242	0.013042731
5.507132292226838e-09	0.39186114	-0.9193119	-0.036201816	-0.14117911	0.33120823	0.013042733
5.643714170704796e-09	0.5685986	-0.82181823	-0.036201898	-0.2048538	0.2960834	0.013042763
5.781289290772493e-09	0.723156	-0.6897354	-0.036201686	-0.2605375	0.24849679	0.0130426865
5.917777201718184e-09	0.8469294	-0.53047156	-0.036201656	-0.30513036	0.19111747	0.013042675
6.055050687711006e-09	0.9366065	-0.34850776	-0.036201406	-0.33743912	0.12555984	0.013042586
6.190393063910023e-09	0.9872497	-0.15500873	-0.036201414	-0.35568476	0.055846304	0.013042589
6.327091284160139e-09	0.9982526	0.04670527	-0.036201578	-0.35964882	-0.016826898	0.013042646
6.4636069547638775e-09	0.96853006	0.24624978	-0.036201775	-0.3489405	-0.088718474	0.013042718
6.600195815256685e-09	0.8992877	0.43585685	-0.036201898	-0.32399392	-0.15702982	0.013042763
6.737006421235009e-09	0.79315585	0.6079419	-0.036201764	-0.28575695	-0.21902835	0.013042714
6.8732466264029796e-09	0.6551973	0.75459003	-0.036201715	-0.23605347	-0.2718625	0.013042697
7.010338301700035e-09	0.48954475	0.8712263	-0.036201995	-0.17637241	-0.31388402	0.013042796
7.146429120360553e-09	0.3051829	0.9516055	-0.03620199	-0.10995082	-0.34284294	0.013042796
7.2838752144899345e-09	0.10646569	0.9936572	-0.036201928	-0.038357288	-0.35799325	0.013042774
7.42020024139396e-09	-0.09499746	0.99481905	-0.03620191	0.03422553	-0.35841182	0.013042766
7.556660365479209e-09	-0.2927908	0.95549107	-0.03620177	0.10548621	-0.3442428	0.013042716
7.693106055959765e-09	-0.47864163	0.8772637	-0.036201753	0.17244425	-0.31605917	0.013042711
7.83015283928148e-09	-0.6456842	0.762746	-0.036201634	0.23262608	-0.27480093	0.013042667
7.966079923505967e-09	-0.7851838	0.6182038	-0.03620134	0.28288478	-0.22272548	0.013042562
8.10388735941814e-09	-0.8942028	0.4461958	-0.036201324	0.32216197	-0.16075471	0.013042556
8.24000636486369e-09	-0.9654468	0.25807348	-0.036201574	0.3478297	-0.0929783	0.0130426455
8.376733948337435e-09	-0.9976253	0.058594555	-0.03620164	0.3594229	-0.021110356	0.01304267
8.512888574331478e-09	-0.9891411	-0.14244075	-0.036201674	0.3563662	0.051318333	0.013042682
8.64945368804565e-09	-0.940351	-0.3382742	-0.036202133	0.33878815	0.1218729	0.013042849
8.786306881243126e-09	-0.8529859	-0.52067703	-0.036202136	0.30731243	0.18758869	0.013042849
8.923415027213264e-09	-0.7304277	-0.6820299	-0.036202256	0.26315734	0.24572065	0.013042892
9.060004232315248e-09	-0.5784687	-0.814901	-0.036201954	0.20840979	0.29359126	0.013042782
9.19642610235691e-09	-0.40313578	-0.9144239	-0.036202066	0.14524113	0.32944718	0.0130428225
9.333435338581477e-09	-0.21054524	-0.9769137	-0.03620188	0.07585491	0.3519609	0.013042756
9.469690303979447e-09	-0.010429298	-0.9992901	-0.03620183	0.0037574507	0.36002266	0.013042739
9.606465860839987e-09	0.19086638	-0.98094827	-0.036201783	-0.068765044	0.35341448	0.013042722
9.742926644686675e-09	0.3839228	-0.9226553	-0.036201637	-0.13831909	0.3324128	0.01304267
9.879149399072972e-09	0.561053	-0.82698804	-0.03620157	-0.20213526	0.29794592	0.013042645
1.0015614907431321e-08	0.71566665	-0.69750327	-0.036201455	-0.25783926	0.2512954	0.013042604
1.0152435122895231e-08	0.84141773	-0.5391713	-0.036201477	-0.30314466	0.19425178	0.01304261
1.028894953048526e-08	0.932562	-0.3591903	-0.03620188	-0.335982	0.12940851	0.013042756
1.0425421608185448e-08	0.98569065	-0.16463126	-0.036201745	-0.3551231	0.05931309	0.013042708
1.0562047233005118e-08	0.9986645	0.03685976	-0.036201764	-0.35979727	-0.013279775	0.013042714
1.0698483771391786e-08	0.9709388	0.2365742	-0.03620159	-0.3498083	-0.08523258	0.013042651
1.0835015421394736e-08	0.90362823	0.4267852	-0.036201883	-0.3255577	-0.1537615	0.013042757
1.0971690942086021e-08	0.7993539	0.5997691	-0.036201622	-0.28798997	-0.21608388	0.013042662
1.110757001056368e-08	0.6633084	0.7474701	-0.036201853	-0.23897569	-0.26929736	0.013042746
1.1243969262855623e-08	0.49981308	0.86537635	-0.03620174	-0.18007186	-0.3117764	0.013042705
1.1380926117654995e-08	0.3152	0.94833463	-0.03620166	-0.11355977	-0.34166452	0.013042675
1.1518207940182346e-08	0.11718029	0.9924506	-0.036201663	-0.04221753	-0.35755855	0.013042678
1.165467222910605e-08	-0.08446301	0.99576885	-0.03620181	0.0304302	-0.35875404	0.01304273
1.179119349296973e-08	-0.2827479	0.95851094	-0.036201775	0.10186796	-0.34533077	0.013042718
1.1927716556201053e-08	-0.4695108	0.8821843	-0.036201864	0.16915461	-0.317832	0.01304275
1.2064023944110203e-08	-0.63689065	0.7701038	-0.036201756	0.22945796	-0.27745178	0.013042711
1.220071292068603e-08	-0.77874666	0.6262933	-0.036201686	0.28056562	-0.22563997	0.0130426865
1.2336331371984478e-08	-0.888059	0.458302	-0.036202017	0.31994855	-0.16511633	0.013042806
1.2473241279813815e-08	-0.96216977	0.27003494	-0.03620208	0.34664902	-0.09728776	0.013042829
1.2609841173026615e-08	-0.996808	0.07115742	-0.036201824	0.35912842	-0.025636483	0.013042736
1.2746037378164638e-08	-0.9908489	-0.13003065	-0.036201738	0.35698146	0.046847235	0.013042705
1.2882585113918408e-08	-0.944526	-0.32643542	-0.036201824	0.34029233	0.11760764	0.013042736
1.3019195494443141e-08	-0.85964304	-0.5096109	-0.036202233	0.30971083	0.18360181	0.013042883
1.3155795062757197e-08	-0.73968613	-0.6719775	-0.036202077	0.26649296	0.24209899	0.013042826
1.3292756307820561e-08	-0.58911365	-0.8072389	-0.03620167	0.21224493	0.29083073	0.013042681
1.3430121277037821e-08	-0.41383377	-0.9096323	-0.036201634	0.14909539	0.32772088	0.013042667
1.3565839086035604e-08	-0.22385493	-0.97394997	-0.036201738	0.080650106	0.35089317	0.013042705
1.3703395715319252e-08	-0.022136897	-0.99909925	-0.03620182	0.007975447	0.35995388	0.013042735
1.3840001919671372e-08	0.17911331	-0.9831622	-0.03620184	-0.064530656	0.35421214	0.013042741
1.3976464662243432e-08	0.37285677	-0.9271825	-0.03620191	-0.13433224	0.33404386	0.013042766
1.4112912578967349e-08	0.5513979	-0.8334566	-0.0362016	-0.19865677	0.30027646	0.013042656
1.42499883020836e-08	0.70814484	-0.70513844	-0.036201943	-0.25512928	0.25404614	0.013042778
1.4387280592578713e-08	0.83597076	-0.54757875	-0.03620158	-0.30118227	0.19728081	0.013042647
1.4523857475422342e-08	0.9289488	-0.36843398	-0.036201794	-0.33468026	0.13273883	0.013042726
1.4660292628854775e-08	0.9839975	-0.17446598	-0.036201946	-0.35451308	0.06285633	0.01304278
1.4796587242218244e-08	0.9989959	0.026396798	-0.036201943	-0.35991663	-0.009510197	0.013042778
1.4933108407286578e-08	0.973335	0.22651373	-0.036202054	-0.35067162	-0.08160801	0.01304282
1.5069664846989643e-08	0.90798014	0.41744646	-0.036202114	-0.32712567	-0.15039694	0.013042841
1.5205823309319026e-08	0.8059463	0.5908808	-0.03620213	-0.29036507	-0.21288162	0.013042846
1.534233392100655e-08	0.67085	0.740709	-0.036202323	-0.24169278	-0.26686147	0.013042916
1.5479086138978367e-08	0.50810575	0.86053354	-0.036202516	-0.18305954	-0.31003165	0.013042986
1.5615699019744102e-08	0.32477608	0.94509786	-0.03620221	-0.11700982	-0.34049836	0.013042876
1.5752860429509877e-08	0.12738723	0.99119216	-0.036202043	-0.045894872	-0.35710514	0.013042815
1.58895528903639e-08	-0.07454962	0.99656	-0.03620196	0.026858622	-0.35903907	0.013042786
1.6026040120113352e-08	-0.2731479	0.9612906	-0.03620207	0.098409295	-0.34633225	0.013042825
1.6162961522983805e-08	-0.46118912	0.88656306	-0.0362019	0.16615647	-0.31940955	0.013042763
1.6299140143590965e-08	-0.62946856	0.7761823	-0.036201853	0.22678393	-0.27964175	0.013042746
1.6436032714145514e-08	-0.7728902	0.6335063	-0.0362017	0.27845567	-0.22823864	0.01304269
1.6573115624200012e-08	-0.8847696	0.46462038	-0.036201898	0.3187634	-0.1673927	0.013042763
1.6709958001696285e-08	-0.9601925	0.27698365	-0.03620187	0.34593663	-0.099791236	0.013042752
1.6846587426190364e-08	-0.9962709	0.07831823	-0.03620196	0.3589349	-0.02821637	0.013042786
1.6983817858347825e-08	-0.99156815	-0.1244273	-0.036201898	0.35724062	0.044828475	0.013042763
1.7120280034105534e-08	-0.94639665	-0.3209717	-0.036201943	0.34096634	0.11563918	0.013042778
1.7256881800332056e-08	-0.8625804	-0.50462306	-0.036201783	0.31076908	0.1818048	0.013042722
1.7393468879962424e-08	-0.7435805	-0.66766584	-0.036201596	0.267896	0.2405456	0.013042655
1.7529890409789104e-08	-0.59444124	-0.80332375	-0.03620163	0.21416436	0.28942022	0.013042666
1.766635565869019e-08	-0.42104995	-0.9063147	-0.03620185	0.15169522	0.32652563	0.013042745
1.7803501823007193e-08	-0.22953005	-0.9726282	-0.036201835	0.082694724	0.35041696	0.0130427405
1.7939820218918355e-08	-0.02979408	-0.99890035	-0.036201835	0.010734163	0.35988224	0.0130427405
1.8076446241235178e-08	0.17160133	-0.9845011	-0.03620193	-0.06182426	0.35469452	0.013042774
1.8213027907457705e-08	0.36593148	-0.9299374	-0.036202107	-0.13183722	0.3350364	0.013042837
1.8350239474131668e-08	0.5461159	-0.836927	-0.036202498	-0.19675376	0.30152673	0.013042979
1.8487395718123988e-08	0.7037582	-0.7095166	-0.036201946	-0.25354892	0.25562352	0.01304278
1.8623959733414263e-08	0.83196235	-0.55364996	-0.036201928	-0.29973805	0.19946814	0.013042774
1.8760724027548913e-08	0.926347	-0.3749276	-0.03620196	-0.33374286	0.13507831	0.013042786
1.8897908220652426e-08	0.9829527	-0.1802592	-0.03620169	-0.35413665	0.0649435	0.013042688
1.9033939590879607e-08	0.999142	0.0201209	-0.036201768	-0.35996932	-0.007249126	0.013042714
1.9170333797149148e-08	0.9747803	0.22021092	-0.036201704	-0.3511923	-0.07933724	0.013042693
1.9306831011762066e-08	0.9106992	0.41148084	-0.036201693	-0.32810527	-0.14824769	0.013042688
1.9443484863991718e-08	0.8093768	0.58617306	-0.036201462	-0.291601	-0.21118551	0.013042606
1.9579908674762256e-08	0.6752532	0.7366971	-0.036201686	-0.24327916	-0.2654161	0.0130426865
1.9717132742310336e-08	0.5126297	0.8578463	-0.036201682	-0.1846894	-0.30906355	0.013042685
1.9854045028625523e-08	0.32933357	0.9435194	-0.036201585	-0.118651785	-0.3399297	0.013042648
1.9990047642322843e-08	0.13387239	0.9903372	-0.036201704	-0.048231333	-0.35679716	0.013042693
2.01263512230209e-08	-0.067449175	0.9970658	-0.036201753	0.024300484	-0.35922128	0.013042711
2.0262891292045127e-08	-0.26636755	0.96319157	-0.03620164	0.09596647	-0.34701714	0.01304267
2.039908917751041e-08	-0.45397466	0.89027894	-0.03620137	0.16355728	-0.32074827	0.013042573
2.0535338003009796e-08	-0.62322384	0.7812053	-0.036201324	0.22453411	-0.2814514	0.013042556
2.067126702752514e-08	-0.7668692	0.6407817	-0.03620125	0.27628642	-0.23085983	0.013042529
2.0807977085688003e-08	-0.8800767	0.47344956	-0.036200874	0.31707266	-0.17057365	0.013042394
2.0943781813929853e-08	-0.95693034	0.28805208	-0.036201365	0.3447613	-0.10377895	0.013042571
2.107979356639546e-08	-0.9952174	0.090729326	-0.03620163	0.35855538	-0.032687817	0.013042666
2.1216710881256487e-08	-0.99309397	-0.11159701	-0.036201723	0.35779035	0.040205996	0.0130427
2.135315529821079e-08	-0.95047575	-0.30868322	-0.036201656	0.3424359	0.111211896	0.013042675
2.148964495583627e-08	-0.8691286	-0.49325976	-0.036201585	0.3131283	0.17771086	0.013042648
2.162571592667098e-08	-0.75278175	-0.657274	-0.03620162	0.27121103	0.23680162	0.01304266
2.1761850321926662e-08	-0.6058787	-0.7947329	-0.036202047	0.21828502	0.2863251	0.013042815
2.1898970206826e-08	-0.433106	-0.90061575	-0.03620165	0.15603873	0.32447243	0.0130426735
2.2035272353337742e-08	-0.24370146	-0.9691745	-0.036201674	0.08780038	0.34917265	0.013042682
2.217110097738127e-08	-0.045095176	-0.9983266	-0.03620175	0.016246818	0.35967556	0.013042709
2.2307750454064366e-08	0.15653102	-0.9870094	-0.036201745	-0.05639475	0.3555982	0.013042708
2.2444256161127204e-08	0.35156572	-0.935463	-0.03620166	-0.12666154	0.33702713	0.013042675
2.2580796585159285e-08	0.532318	-0.84577006	-0.03620172	-0.19178268	0.3047127	0.013042698
2.2717491484931466e-08	0.6915331	-0.72143716	-0.036201674	-0.24914443	0.2599182	0.013042682
2.2854540931852855e-08	0.8227885	-0.5671937	-0.036201272	-0.29643297	0.20434766	0.0130425375
2.2990810936558754e-08	0.91979873	-0.3907172	-0.036201287	-0.33138365	0.14076698	0.013042543
2.3127992845578298e-08	0.9797247	-0.1970511	-0.036201447	-0.3529737	0.07099326	0.013042599
2.3264644267225083e-08	0.99933684	0.0039394344	-0.036201604	-0.36003947	-0.0014192932	0.013042657
2.3401172914438033e-08	0.9781778	0.20459178	-0.03620156	-0.35241634	-0.07371	0.013042641
2.353762843750222e-08	0.91718864	0.39680526	-0.036201626	-0.33044326	-0.14296037	0.013042664
2.367453826659686e-08	0.8184666	0.5734126	-0.036201783	-0.29487586	-0.20658818	0.013042722
2.381069306973045e-08	0.6870079	0.7257477	-0.03620147	-0.24751413	-0.2614712	0.013042608
2.3947201637027262e-08	0.52725196	0.84893745	-0.036202375	-0.18995751	-0.30585384	0.013042935
2.4084973747295954e-08	0.34425303	0.9381787	-0.036201887	-0.12402694	-0.33800554	0.013042759
2.422089767550883e-08	0.14967202	0.9880728	-0.036201946	-0.0539236	-0.3559813	0.01304278
2.4358184683616755e-08	-0.052971303	0.99793965	-0.03620193	0.019084416	-0.35953614	0.013042774
2.4494846305392772e-08	-0.2525357	0.9669101	-0.036201976	0.09098317	-0.34835684	0.013042791
2.4631303019391815e-08	-0.44151375	0.8965239	-0.036201797	0.15906788	-0.32299823	0.013042726
2.4768256672570573e-08	-0.61309385	0.7891802	-0.036201987	0.22088449	-0.28432462	0.013042796
2.490501883400589e-08	-0.75934297	0.6496829	-0.036201786	0.2735749	-0.23406672	0.013042723
2.504019238501219e-08	-0.8733929	0.48566893	-0.03620188	0.3146646	-0.17497604	0.013042756
2.5176578216026544e-08	-0.9530834	0.30053532	-0.03620188	0.34337538	-0.1082764	0.013042756
2.5313261719992534e-08	-0.99404943	0.102738276	-0.036202002	0.35813457	-0.037014384	0.0130428
2.544974590303304e-08	-0.9944325	-0.098962516	-0.03620191	0.35827258	0.03565406	0.013042766
2.558627080002219e-08	-0.95428777	-0.2966892	-0.03620203	0.3438093	0.106890716	0.013042809
2.572272720035514e-08	-0.8752939	-0.48223448	-0.036202017	0.31534952	0.17373869	0.013042806
2.5859543793935e-08	-0.76031274	-0.64854765	-0.03620147	0.2739243	0.23365772	0.013042608
2.599480210290193e-08	-0.6160276	-0.7868923	-0.03620181	0.22194144	0.2835003	0.01304273
2.6131358260502573e-08	-0.44537473	-0.8946121	-0.036202103	0.1604589	0.32230943	0.013042837
2.626883927230587e-08	-0.25523612	-0.9662009	-0.036201656	0.091956064	0.34810132	0.013042675
2.6405089805626187e-08	-0.056368563	-0.99775356	-0.036201566	0.020308377	0.35946912	0.013042644
2.654136051879946e-08	0.14481716	-0.988796	-0.036201756	-0.052174497	0.35624188	0.013042711
2.667794762861459e-08	0.34056333	-0.9395244	-0.036202095	-0.12269761	0.33849037	0.013042834
2.6814610108981304e-08	0.52251166	-0.85186327	-0.036202323	-0.18824968	0.30690795	0.013042916
2.695179502102734e-08	0.6836832	-0.7288805	-0.036201917	-0.24631631	0.26259995	0.01304277
2.7087817123149927e-08	0.81572396	-0.5773074	-0.036201775	-0.29388773	0.20799139	0.013042718
2.722500911725273e-08	0.91545457	-0.4007897	-0.036201827	-0.32981855	0.14439589	0.013042737
2.7361492484121374e-08	0.97728765	-0.20880215	-0.03620182	-0.3520956	0.07522691	0.013042735
2.7498089347495056e-08	0.9993114	-0.008140969	-0.03620177	-0.3600303	0.0029330156	0.013042716
2.7634803130448397e-08	0.9805264	0.19302222	-0.036201872	-0.35326248	-0.06954174	0.013042754
2.7771252623482965e-08	0.9218152	0.38593563	-0.036201928	-0.33211014	-0.13904428	0.013042774
2.7908120882773915e-08	0.8252218	0.5636474	-0.036201704	-0.29730958	-0.20306998	0.013042693
2.8045030421629662e-08	0.69477946	0.7183113	-0.03620185	-0.25031406	-0.25879204	0.013042745
2.8181461573514498e-08	0.5364549	0.8431521	-0.036202386	-0.19327313	-0.3037695	0.013042939
2.831885999403206e-08	0.35495412	0.9341826	-0.036202013	-0.12788233	-0.3365658	0.013042805
2.8455486854439005e-08	0.1599289	0.98646456	-0.036201783	-0.05761893	-0.3554019	0.013042722
2.8592380523909622e-08	-0.042018447	0.99846077	-0.036201805	0.01513834	-0.3597239	0.013042729
2.8728843307208687e-08	-0.2416254	0.9696942	-0.03620184	0.08705242	-0.34935993	0.013042741
2.8865455967967825e-08	-0.4315922	0.90134215	-0.03620175	0.15549335	-0.32473415	0.013042709
2.9001827675284164e-08	-0.60365963	0.79641986	-0.036201317	0.21748555	-0.2869329	0.013042554
2.913814528081996e-08	-0.7511239	0.65916795	-0.036201794	0.27061373	-0.23748398	0.013042726
2.9274968983675017e-08	-0.86843634	0.4944772	-0.036202118	0.31287888	-0.17814948	0.013042841
2.941178174485759e-08	-0.95019144	0.30955744	-0.03620215	0.3423335	-0.11152686	0.013042854
2.9548528715537343e-08	-0.99304134	0.112064354	-0.036201864	0.35777137	-0.04037437	0.01304275
2.9684684867055743e-08	-0.99536103	-0.08913982	-0.036201853	0.3586071	0.032115154	0.013042746
2.982123221050311e-08	-0.95716083	-0.2872849	-0.03620197	0.3448444	0.103502564	0.013042789
2.9958002537290525e-08	-0.87977624	-0.47400758	-0.03620202	0.3169644	0.1707747	0.013042808
3.009466407112128e-08	-0.7665058	-0.64121634	-0.036202032	0.27615547	0.23101641	0.013042811
3.023140694601835e-08	-0.6218353	-0.7823109	-0.036202103	0.22403383	0.28184974	0.013042837
3.0367397257995754e-08	-0.45273113	-0.8909118	-0.036201872	0.16310924	0.32097632	0.013042754
3.0503383394960324e-08	-0.26532328	-0.96347964	-0.03620193	0.095590256	0.34712094	0.013042774
3.064008104164131e-08	-0.066134155	-0.9971539	-0.036201946	0.02382671	0.35925302	0.01304278
3.077698176495912e-08	0.13605517	-0.9900396	-0.036201872	-0.049017742	0.35668993	0.013042754
3.09135055105659e-08	0.33214158	-0.9425347	-0.036201626	-0.11966345	0.3395749	0.013042664
3.105009594368693e-08	0.51477414	-0.85656124	-0.03620183	-0.185462	0.30860054	0.013042739
3.1187394853657215e-08	0.67717534	-0.7349306	-0.036201436	-0.24397168	0.26477963	0.013042596
3.1323693409619854e-08	0.810797	-0.58420694	-0.03620179	-0.29211265	0.21047716	0.013042724
3.145980994479177e-08	0.9113695	-0.40999392	-0.036202054	-0.3283468	0.14771196	0.01304282
3.159623914309643e-08	0.97511685	-0.21871592	-0.03620227	-0.3513136	0.07879862	0.013042897
3.173337106867344e-08	0.9991914	-0.017494755	-0.03620211	-0.35998714	0.0063029826	0.01304284
3.1869582096879386e-08	0.9824265	0.1831054	-0.03620202	-0.35394707	-0.065968916	0.013042808
3.200625660226021e-08	0.9255416	0.37691155	-0.036201917	-0.33345267	-0.1357931	0.01304277
3.214284335630325e-08	0.83092093	0.5552116	-0.036201604	-0.2993629	-0.20003076	0.013042657
3.227926303803348e-08	0.70257694	0.7106864	-0.03620184	-0.2531233	-0.25604498	0.013042741
3.241620764475512e-08	0.5449877	0.83766216	-0.036201913	-0.19634731	-0.3017916	0.013042768
3.255289455810513e-08	0.36540252	0.93014544	-0.036201905	-0.13164665	-0.33511135	0.013042765
3.268944251060189e-08	0.1710916	0.9845899	-0.036201812	-0.061640613	-0.35472646	0.013042731
3.282601021038598e-08	-0.03022487	0.9988873	-0.036201842	0.010889368	-0.35987756	0.013042742
3.2962457828631525e-08	-0.23013571	0.97248495	-0.036201954	0.08291294	-0.35036534	0.013042782
3.3099005908570184e-08	-0.42081156	0.9064255	-0.03620165	0.15160933	-0.3265655	0.0130426735
3.323586563068277e-08	-0.5946978	0.803134	-0.036201153	0.21425676	-0.28935188	0.013042495
3.337145154058267e-08	-0.7429662	0.6683493	-0.03620159	0.26767468	-0.24079183	0.013042651
3.3509124776351845e-08	-0.86292785	0.5040288	-0.036201514	0.31089425	-0.1815907	0.013042625
3.36454287960121e-08	-0.946476	0.32073796	-0.036201984	0.3409949	-0.115554966	0.013042793
3.3782208133227395e-08	-0.9916571	0.123716	-0.036201894	0.35727262	-0.044572204	0.013042761
3.391865386517207e-08	-0.99630564	-0.07787463	-0.036201853	0.35894743	0.02805655	0.013042746
3.405528026370384e-08	-0.96031713	-0.27655122	-0.03620179	0.34598154	0.09963545	0.013042724
3.4191634148157876e-08	-0.8853145	-0.46358135	-0.03620179	0.3189597	0.16701835	0.013042724
3.4328396908170874e-08	-0.773933	-0.63223195	-0.036201984	0.27883136	0.22777954	0.013042793
3.446547403447306e-08	-0.63053524	-0.77531594	-0.03620171	0.22716825	0.2793296	0.013042696
3.460243425739128e-08	-0.4613826	-0.8864624	-0.036201544	0.1662262	0.31937325	0.013042636
3.473853895989146e-08	-0.27452195	-0.96089923	-0.036201812	0.098904334	0.3461913	0.013042731
3.487504713330135e-08	-0.07594439	-0.9964547	-0.036201835	0.027361125	0.35900116	0.0130427405
3.5011766146244216e-08	0.12603801	-0.9913647	-0.03620195	-0.045408778	0.3571673	0.0130427815
3.514845943138233e-08	0.32283282	-0.9457634	-0.03620187	-0.1163097	0.34073812	0.013042752
3.5284934710629316e-08	0.5061576	-0.8616809	-0.03620183	-0.18235767	0.31044507	0.013042739
3.542099043757772e-08	0.66840434	-0.7429166	-0.03620171	-0.24081168	0.2676568	0.013042696
3.555763445146712e-08	0.80411077	-0.5933762	-0.036202304	-0.28970373	0.21378064	0.013042909
3.5694133124918316e-08	0.90689385	-0.41980103	-0.036202293	-0.32673427	0.15124527	0.013042904
3.58312541269586e-08	0.97293526	-0.2282247	-0.036201917	-0.35052758	0.082224436	0.01304277
3.5967976758236214e-08	0.99895626	-0.027854953	-0.036201954	-0.35990238	0.010035539	0.013042782
3.610466354816053e-08	0.98415047	0.17360125	-0.036201995	-0.35456818	-0.062544785	0.013042796
3.624125200442226e-08	0.9291887	0.36782864	-0.036201507	-0.33476663	-0.1325207	0.013042621
3.637758293978538e-08	0.83652675	0.5467289	-0.03620167	-0.30138254	-0.19697462	0.013042681
3.651370121225015e-08	0.710085	0.7031847	-0.03620177	-0.2558283	-0.2533423	0.013042716
3.665101821782757e-08	0.5533943	0.8321324	-0.03620173	-0.19937605	-0.29979932	0.013042703
3.678660479897497e-08	0.37626025	0.9258066	-0.03620188	-0.13555846	-0.3335482	0.013042756
3.692332586189304e-08	0.18234727	0.9825675	-0.03620179	-0.065695785	-0.35399786	0.013042724
3.706001368866011e-08	-0.018969918	0.9991645	-0.0362018	0.006834452	-0.35997742	0.0130427275
3.7196823035993764e-08	-0.21968763	0.97489834	-0.036201894	0.07914871	-0.3512348	0.013042761
3.7333455115758564e-08	-0.41117415	0.9108377	-0.036201738	0.14813718	-0.32815516	0.013042705
3.7469510771536404e-08	-0.5851833	0.8100926	-0.03620187	0.21082893	-0.29185888	0.013042752
3.7605879540808015e-08	-0.7358176	0.6762115	-0.036202226	0.26509923	-0.2436244	0.01304288
3.77425184955596e-08	-0.85673344	0.51448745	-0.036201935	0.30866253	-0.18535873	0.013042776
3.787822200918253e-08	-0.9422096	0.33306262	-0.03620213	0.33945775	-0.11999528	0.013042846
3.8015074151431125e-08	-0.98997295	0.13653997	-0.036201935	0.35666588	-0.049192406	0.013042776
3.815161112821962e-08	-0.9972213	-0.065108426	-0.03620188	0.3592773	0.023457162	0.013042756
3.82880695167409e-08	-0.96384573	-0.26399022	-0.036201887	0.34725285	0.095109984	0.013042759
3.842469779213682e-08	-0.8911075	-0.4523459	-0.036201656	0.32104683	0.16297048	0.013042675
3.8560681302211586e-08	-0.78258646	-0.62148845	-0.036202125	0.281949	0.22390887	0.013042845
3.8697177124439264e-08	-0.6418354	-0.7659875	-0.03620235	0.23123944	0.27596876	0.013042925
3.883417669491804e-08	-0.47427702	-0.87963104	-0.036202036	0.17087176	0.31691206	0.013042812
3.8970796748780063e-08	-0.28779155	-0.9570087	-0.03620189	0.10368508	0.3447896	0.01304276
3.910762419049133e-08	-0.089253396	-0.9953509	-0.036201943	0.032156073	0.35860345	0.013042778
3.9244326932180824e-08	0.11275549	-0.99296314	-0.0362019	-0.040623367	0.35774314	0.013042763
3.9380911962759064e-08	0.30999038	-0.9500503	-0.03620169	-0.11168283	0.3422826	0.013042688
3.951712256468474e-08	0.49409658	-0.86865294	-0.036201984	-0.17801233	0.31295693	0.013042793
3.965393686117821e-08	0.65882856	-0.75142163	-0.036202166	-0.23736171	0.27072096	0.01304286
3.9791230310376955e-08	0.7970204	-0.6028665	-0.036201965	-0.28714925	0.21719977	0.013042788
3.9926678469266286e-08	0.9011817	-0.431927	-0.036201738	-0.32467633	0.15561397	0.013042705
4.0062797241935894e-08	0.9694269	-0.2426955	-0.03620166	-0.34926358	0.08743794	0.013042675
4.0198678308671086e-08	0.99837625	-0.043981872	-0.03620168	-0.35969344	0.01584572	0.013042683
4.0335351585270577e-08	0.9868287	0.1576661	-0.03620176	-0.35553306	-0.056803696	0.013042713
4.047194449627291e-08	0.93501216	0.35276294	-0.03620206	-0.3368647	-0.12709287	0.013042821
4.060869754801421e-08	0.84491867	0.5336683	-0.036201905	-0.304406	-0.19226918	0.013042765
4.074549295412142e-08	0.72022814	0.69279206	-0.03620184	-0.25948268	-0.24959804	0.013042741
4.0881709130846975e-08	0.56677055	0.82308006	-0.036202148	-0.2041952	-0.296538	0.013042852
4.101818863036624e-08	0.38995537	0.9201219	-0.036202036	-0.1404925	-0.33150005	0.013042812
4.115454757695232e-08	0.19743021	0.9796483	-0.03620216	-0.07112984	-0.35294616	0.013042857
4.1291364291566124e-08	-0.0038005095	0.9993374	-0.03620204	0.0013692414	-0.3600397	0.013042813
4.142777253362514e-08	-0.20428328	0.9782422	-0.03620195	0.07359886	-0.35243958	0.0130427815
4.156436830318884e-08	-0.39670724	0.91723114	-0.03620162	0.14292505	-0.33045858	0.01304266
4.170031782792089e-08	-0.57215947	0.81934315	-0.036201302	0.20613672	-0.29519168	0.013042547
4.1836412492289855e-08	-0.7246327	0.6881839	-0.036201406	0.26106954	-0.24793781	0.013042586
4.197285741164885e-08	-0.84803015	0.52871007	-0.036201376	0.30552697	-0.19048283	0.013042575
4.2109340624097786e-08	-0.93692243	0.34765777	-0.036201715	0.33755296	-0.1252536	0.013042697
4.224558055064563e-08	-0.9875942	0.15279809	-0.036201615	0.35580885	-0.05504985	0.01304266
4.238243568554796e-08	-0.99813396	-0.049173128	-0.036201727	0.3596061	0.017716017	0.0130427