# t (s)	mx ()	my ()	mz ()	B_demagx (T)	B_demagy (T)	B_demagz (T)
0	0.6666667	0.6666667	0.33333334	-0.24018563	-0.24018563	-0.12009282
1.023e-12	0.6761263	0.65775275	0.3319859	-0.24359372	-0.23697414	-0.11960736
2.047e-12	0.685437	0.64873177	0.33064073	-0.24694818	-0.23372406	-0.11912273
4.095e-12	0.7035827	0.63040686	0.32796133	-0.25348568	-0.227122	-0.11815739
8.191e-12	0.73796475	0.5927121	0.32264614	-0.26587278	-0.21354139	-0.11624244
1.6383e-11	0.7990829	0.5138124	0.3121914	-0.2878923	-0.18511552	-0.11247583
3.2767e-11	0.89128506	0.34691915	0.29199004	-0.32111079	-0.12498748	-0.10519772
5.618995123435215e-11	0.9587491	0.103460535	0.26475662	-0.3454166	-0.0372746	-0.0953861
8.130096849268897e-11	0.96078354	-0.14281556	0.23769464	-0.34614956	0.051453367	-0.08563624
1.0844907206871193e-10	0.90275306	-0.37493658	0.21085426	-0.32524246	0.13508156	-0.07596624
1.3803450203049718e-10	0.7942884	-0.5789019	0.18433318	-0.28616497	0.20856586	-0.066411264
1.7057437007113248e-10	0.6480649	-0.74496484	0.15823863	-0.2334838	0.26839477	-0.05700997
2.067439487423909e-10	0.47839594	-0.8680605	0.13269614	-0.17235574	0.31274348	-0.047807556
2.473512347373422e-10	0.3002948	-0.94772285	0.10790906	-0.10818973	0.34144408	-0.03887731
2.934728641006559e-10	0.1279274	-0.9882107	0.08410939	-0.046089478	0.35603094	-0.030302798
3.4640109226648456e-10	-0.02591812	-0.99776244	0.061631985	0.00933774	0.35947227	-0.022204675
4.0763622460144286e-10	-0.15059435	-0.9877489	0.04090852	0.0542559	0.35586458	-0.014738457
4.784454677514816e-10	-0.23771127	-0.9710749	0.022514671	0.08564223	0.34985733	-0.00811155
5.592627714001945e-10	-0.28211218	-0.95935565	0.007041996	0.10163893	0.34563512	-0.0025370792
6.485129094713474e-10	-0.2831111	-0.9590737	-0.005080468	0.10199881	0.34553355	0.001830383
7.439523587226849e-10	-0.2452104	-0.9693689	-0.014004186	0.08834402	0.3492427	0.0050454056
8.447704202399822e-10	-0.17445973	-0.98445415	-0.020342331	0.06285408	0.35467756	0.0073289033
9.517657937496626e-10	-0.07542541	-0.99684405	-0.024761353	0.027174149	0.3591414	0.008920981
1.0672793748903285e-09	0.049536433	-0.9983852	-0.027805358	-0.017846908	0.35969666	0.010017671
1.1944610677238488e-09	0.19886076	-0.9795728	-0.029859733	-0.071645245	0.35291892	0.010757818
1.3401932570264633e-09	0.37345716	-0.92712194	-0.031219091	-0.13454856	0.33402205	0.011247565
1.5349459241825575e-09	0.5936429	-0.8040865	-0.032142058	-0.21387672	0.28969502	0.011580089
1.7160348965148025e-09	0.7676664	-0.64002293	-0.032541953	-0.27657366	0.23058647	0.011724163
1.8719834215400005e-09	0.883413	-0.46745175	-0.03271442	-0.31827468	0.16841279	0.011786299
2.021577531595265e-09	0.9588271	-0.2820897	-0.032803617	-0.34544468	0.10163084	0.011818436
2.1700802352265295e-09	0.99571204	-0.086477116	-0.032852117	-0.35873353	0.031155836	0.01183591
2.3169808824289325e-09	0.99331635	0.11064209	-0.032878447	-0.35787043	-0.039861955	0.011845395
2.4632675141041552e-09	0.9524921	0.30278218	-0.032892965	-0.34316236	-0.10908589	0.011850626
2.6095967726137402e-09	0.8748184	0.4833327	-0.03290061	-0.31517816	-0.17413434	0.011853378
2.7540838406523475e-09	0.7648882	0.6433222	-0.03290513	-0.27557272	-0.2317751	0.011855009
2.8996312029158483e-09	0.6249755	0.77995044	-0.03290754	-0.2251652	-0.2809993	0.011855878
3.0448218977508434e-09	0.46155307	0.8865021	-0.03290873	-0.1662876	-0.31938756	0.0118563045
3.1895414090699446e-09	0.2811476	0.9591001	-0.032909732	-0.10129142	-0.3455431	0.011856668
3.3348541221131004e-09	0.08929932	0.995461	-0.032910224	-0.03217262	-0.3586431	0.011856845
3.4801133620978334e-09	-0.10588821	0.99383336	-0.032910485	0.038149238	-0.35805672	0.011856938
3.62579663408219e-09	-0.29758245	0.95412874	-0.032910474	0.10721253	-0.343752	0.011856934
3.771093284563982e-09	-0.47740307	0.8780679	-0.032910533	0.17199802	-0.3163489	0.011856955
3.916680023475201e-09	-0.6393052	0.7682486	-0.032910593	0.23032787	-0.2767834	0.011856977
4.0619179606262655e-09	-0.7764177	0.6293588	-0.03291081	0.27972654	-0.22674441	0.011857054
4.2069043040992335e-09	-0.8837671	0.46676832	-0.03291096	0.31840223	-0.16816655	0.01185711
4.352998444094796e-09	-0.95795894	0.28501153	-0.03291099	0.34513193	-0.102683514	0.01185712
4.498633714144979e-09	-0.9951339	0.092873156	-0.032910977	0.35852528	-0.0334602	0.011857115
4.64465806304445e-09	-0.99410087	-0.103346646	-0.032910928	0.3581531	0.03723357	0.011857098
4.790268818185231e-09	-0.9549146	-0.29505074	-0.03291079	0.34403515	0.10630041	0.011857048
4.935887502208375e-09	-0.8791238	-0.47545585	-0.03291096	0.3167293	0.17129648	0.01185711
5.081836663985609e-09	-0.7693507	-0.63797843	-0.03291128	0.2771805	0.22984987	0.011857223
5.227254364567827e-09	-0.6305073	-0.7754854	-0.03291082	0.22715817	0.27939063	0.011857057
5.3735419063138525e-09	-0.466528	-0.88389397	-0.03291094	0.16807997	0.3184479	0.011857102
5.518818210826319e-09	-0.28580558	-0.9577224	-0.032911	0.10296958	0.34504673	0.011857122
5.664761302427218e-09	-0.09328558	-0.9950953	-0.032911055	0.033608783	0.3585114	0.011857144
5.8103359890647045e-09	0.1023329	-0.9942057	-0.032910954	-0.036868334	0.35819083	0.011857105
5.956008103277725e-09	0.29415607	-0.9551906	-0.032911006	-0.10597809	0.34413454	0.011857124
6.101647451649343e-09	0.4746572	-0.8795553	-0.032911085	-0.17100875	0.31688476	0.011857154
6.247135636343511e-09	0.6368017	-0.770325	-0.032911174	-0.22942592	0.2775315	0.0118571855
6.392644571411121e-09	0.77459794	-0.6315973	-0.032910604	-0.2790709	0.22755088	0.011856981
6.538992119062957e-09	0.8832743	-0.46770027	-0.03291073	-0.31822467	0.1685023	0.011857027
6.684387070601876e-09	0.95738757	-0.28692493	-0.032910638	-0.34492606	0.10337286	0.011856992
6.829219589423465e-09	0.99484307	-0.09593884	-0.032910526	-0.3584205	0.03456469	0.011856953
6.974685002700795e-09	0.99448997	0.099532545	-0.032910638	-0.3582933	-0.03585943	0.011856992
7.120202561397575e-09	0.9560764	0.2912645	-0.032910753	-0.3444537	-0.104936324	0.011857035
7.26591868230217e-09	0.8809398	0.47208282	-0.032910384	-0.3173836	-0.17008126	0.0118569005
7.410670066666911e-09	0.77281517	0.63377726	-0.03291074	-0.2784286	-0.22833627	0.011857029
7.55592512551711e-09	0.6348947	0.77189755	-0.032910395	-0.22873887	-0.27809805	0.011856905
7.701166881176924e-09	0.47277483	0.88056856	-0.032910816	-0.17033057	-0.31724986	0.011857057
7.847359678590056e-09	0.29140198	0.9560345	-0.0329106	-0.10498585	-0.3444386	0.011856979
7.992743234855541e-09	0.099855624	0.9944576	-0.03291063	-0.035975825	-0.35828164	0.01185699
8.138046718678115e-09	-0.09539913	0.9948949	-0.03291071	0.034370244	-0.35843918	0.011857018
8.283709549907325e-09	-0.28747675	0.95722204	-0.032910813	0.10357167	-0.34486645	0.011857055
8.429426193864716e-09	-0.46859255	0.8828012	-0.03291071	0.1688238	-0.3180542	0.011857018
8.575299128844643e-09	-0.6318854	0.77436286	-0.0329113	0.2276547	-0.27898625	0.011857231
8.72130960697401e-09	-0.77099115	0.63599515	-0.032910474	0.27777147	-0.22913533	0.011856934
8.866956635590546e-09	-0.8801515	0.47355077	-0.03291071	0.31709957	-0.17061013	0.011857018
9.01305424805216e-09	-0.95573986	0.29236662	-0.032910734	0.34433246	-0.10533339	0.011857028
9.159652018591163e-09	-0.9945199	0.09923243	-0.032910712	0.35830405	-0.035751306	0.01185702
9.3052945297722e-09	-0.994791	-0.09647711	-0.032910712	0.35840175	0.034758624	0.01185702
9.450889736659053e-09	-0.95693636	-0.28842637	-0.032910775	0.34476355	0.1039138	0.011857042
9.596544988861441e-09	-0.8823749	-0.46939492	-0.032910846	0.3179006	0.16911286	0.011857068
9.742160627675758e-09	-0.7740073	-0.63232076	-0.032910723	0.27885816	0.22781152	0.011857023
9.887267904284253e-09	-0.6365008	-0.7705737	-0.032910604	0.22931749	0.27762106	0.011856981
1.0032990357113292e-08	-0.47403762	-0.87988937	-0.032910924	0.17078555	0.31700516	0.011857096
1.0178571442697674e-08	-0.2935587	-0.9553744	-0.032910835	0.10576287	0.3442008	0.011857064
1.0324239776867056e-08	-0.101716906	-0.99426895	-0.032910727	0.036646403	0.3582136	0.011857023
1.047010900700353e-08	0.0942953	-0.9950002	-0.03291073	-0.03397256	0.35847706	0.011857027
1.0615743919668194e-08	0.28637832	-0.95755124	-0.032910686	-0.10317593	0.34498507	0.01185701
1.0761006232527804e-08	0.46703848	-0.8836244	-0.03291086	-0.1682639	0.3183508	0.011857072
1.0906560580939803e-08	0.63018906	-0.7757441	-0.03291091	-0.22704352	0.27948385	0.01185709
1.1051469845574505e-08	0.76865005	-0.6388224	-0.032910876	-0.276928	0.23015392	0.011857079
1.1196357445458595e-08	0.87791944	-0.47767603	-0.032911178	-0.3162954	0.17209637	0.011857187
1.1341098410784966e-08	0.9538142	-0.2985893	-0.032911055	-0.34363866	0.10757528	0.011857144
1.1487566540136467e-08	0.99383384	-0.10588329	-0.032910973	-0.3580569	0.038147464	0.011857114
1.1633621276631453e-08	0.995364	0.0903738	-0.03291087	-0.3586082	-0.03255973	0.011857076
1.1779119598385674e-08	0.95872414	0.28242707	-0.032910634	-0.3454076	-0.101752385	0.011856991
1.1924494878283033e-08	0.88547254	0.46352485	-0.032910895	-0.31901667	-0.166998	0.011857085
1.2069741968957126e-08	0.7785004	0.6267808	-0.032910727	-0.28047687	-0.22581561	0.011857023
1.2214749397985413e-08	0.642086	0.7659259	-0.03291052	-0.23132974	-0.27594656	0.01185695
1.2359679297494303e-08	0.48135728	0.87590647	-0.03291054	-0.17342263	-0.3155702	0.011856956
1.2505217859979005e-08	0.30156997	0.952876	-0.032910723	-0.10864916	-0.34330067	0.011857023
1.265109537085588e-08	0.109781764	0.9934108	-0.032910846	-0.039552	-0.3579045	0.011857068
1.2796858176027556e-08	-0.086075775	0.9957449	-0.032910816	0.031011242	-0.35874543	0.011857057
1.2942439544133655e-08	-0.27839288	0.95990336	-0.032910887	0.10029895	-0.34583244	0.011857083
1.3088227026852249e-08	-0.46029007	0.8871584	-0.032910485	0.16583258	-0.31962404	0.011856938
1.323306508546931e-08	-0.6235043	0.7811269	-0.032910798	0.22463514	-0.28142315	0.0118570505
1.3378824602077964e-08	-0.7638752	0.64452434	-0.032911133	0.27520776	-0.23220822	0.011857171
1.3525033915851455e-08	-0.8752014	0.48263806	-0.03291069	0.3153162	-0.17388408	0.011857012
1.3669891400913986e-08	-0.9521557	0.30383617	-0.032910895	0.34304118	-0.109465614	0.011857085
1.3815219257292285e-08	-0.99306345	0.11288019	-0.03291074	0.35777932	-0.0406683	0.011857029
1.39603141355211e-08	-0.9960828	-0.08207286	-0.032910764	0.35886714	0.029569082	0.011857038
1.4106016856056597e-08	-0.9609697	-0.27468917	-0.032910686	0.34621662	0.09896458	0.01185701
1.4251830573430813e-08	-0.8889112	-0.45689604	-0.03291055	0.32025552	0.16460979	0.011856961
1.4396619263576524e-08	-0.7835455	-0.62046224	-0.032910623	0.2822945	0.22353916	0.011856987
1.4542501296384529e-08	-0.6473656	-0.7614688	-0.032911025	0.23323187	0.2743408	0.0118571315
1.46877354296751e-08	-0.4870426	-0.8727579	-0.03291064	0.17547095	0.31443584	0.011856995
1.4832168248360758e-08	-0.30917495	-0.95043564	-0.032910865	0.111389056	0.34242147	0.011857074
1.4977853390932396e-08	-0.11797448	-0.9924711	-0.032910623	0.042503662	0.35756594	0.011856987
1.512299721369403e-08	0.07702573	-0.99648577	-0.032910753	-0.027750708	0.3590123	0.011857035
1.5268522067051445e-08	0.26958698	-0.9624136	-0.032910854	-0.09712638	0.34673685	0.01185707
1.5414219466203263e-08	0.45203525	-0.89139277	-0.03291093	-0.16285855	0.3211496	0.0118571
1.5559533627933097e-08	0.61673236	-0.7864847	-0.03291094	-0.22219536	0.28335348	0.011857102
1.5705195660880778e-08	0.7581929	-0.6511992	-0.03291096	-0.27316052	0.23461303	0.01185711
1.5851145227647394e-08	0.870763	-0.49060026	-0.03291124	-0.31371713	0.1767527	0.011857211
1.5997191662200606e-08	0.94984466	-0.31098574	-0.0329107	-0.34220853	0.11204146	0.011857015
1.6143025441352654e-08	0.9922686	-0.11966644	-0.032910746	-0.35749298	0.04311323	0.011857032
1.6288567623857863e-08	0.9965751	0.07586163	-0.032910787	-0.35904452	-0.02733131	0.011857047
1.643403610004365e-08	0.9627482	0.2683894	-0.03291071	-0.34685743	-0.0966949	0.011857018
1.6579596841186257e-08	0.89203745	0.45076168	-0.032911126	-0.32138187	-0.16239971	0.011857169
1.6725888839743135e-08	0.7865522	0.61664635	-0.032911234	-0.2833778	-0.22216436	0.011857207
1.6872453478781045e-08	0.6503588	0.7589139	-0.03291168	-0.23431024	-0.2734203	0.011857368
1.701866743887399e-08	0.48932266	0.8714817	-0.032911334	-0.17629239	-0.31397605	0.011857244
1.71637429682115e-08	0.3108347	0.94989413	-0.032910984	-0.11198704	-0.34222636	0.011857117
1.7308641607007865e-08	0.12075727	0.99213636	-0.032910943	-0.043506235	-0.3574453	0.011857102
1.745434744970457e-08	-0.07498666	0.99664134	-0.032910902	0.027016073	-0.3590684	0.011857087
1.7600074056403725e-08	-0.2678795	0.96289015	-0.032910902	0.0965112	-0.34690857	0.011857087
1.7745792063002157e-08	-0.45047837	0.8921806	-0.03291075	0.16229764	-0.32143342	0.011857033
1.7891356821656703e-08	-0.6156236	0.7873528	-0.032911077	0.22179592	-0.28366622	0.01185715
1.803729338367973e-08	-0.75751615	0.65198636	-0.03291126	0.27291673	-0.23489662	0.011857217
1.8183970355682382e-08	-0.8707344	0.49065104	-0.03291106	0.31370682	-0.17677099	0.011857145
1.832872976674361e-08	-0.94928575	0.31268784	-0.032910928	0.34200716	-0.11265467	0.011857098
1.8473592177007747e-08	-0.9918929	0.12274196	-0.03291089	0.35735762	-0.04422128	0.011857083
1.8618618709319892e-08	-0.99685574	-0.07208031	-0.03291084	0.35914564	0.02596898	0.011857064
1.8764264582521856e-08	-0.9636962	-0.26496556	-0.032910783	0.34719896	0.095461376	0.011857046
1.890966326256867e-08	-0.8937317	-0.44739312	-0.03291114	0.32199225	0.1611861	0.011857173
1.9055483011571442e-08	-0.78926396	-0.61317164	-0.032911006	0.28435478	0.22091252	0.011857124
1.9200395434254618e-08	-0.6553818	-0.75458044	-0.032911036	0.2361199	0.27185905	0.011857137
1.9345818638624962e-08	-0.49602285	-0.8676855	-0.032910813	0.17870632	0.31260836	0.011857055
1.9490475127840966e-08	-0.3186804	-0.9472907	-0.0329108	0.11481367	0.3412884	0.011857051
1.9636420147624955e-08	-0.12756312	-0.99128425	-0.032910753	0.04595824	0.35713834	0.011857035
1.978220096366602e-08	0.06824504	-0.9971256	-0.03291077	-0.024587214	0.35924286	0.01185704
1.9927704310187022e-08	0.26107118	-0.96475846	-0.032910876	-0.09405831	0.34758162	0.011857079
2.0073401760532063e-08	0.44413975	-0.8953529	-0.0329106	-0.16001397	0.32257634	0.011856979
2.0218282596447567e-08	0.60929406	-0.79226124	-0.032910775	-0.2195155	0.2854346	0.011857042
2.036412695588575e-08	0.75218415	-0.65813065	-0.03291093	-0.27099574	0.23711026	0.0118571
2.0509578334737853e-08	0.8658884	-0.4991535	-0.032910593	-0.31196094	0.17983423	0.011856977
2.065482247613238e-08	0.94638795	-0.32135174	-0.032910798	-0.34096318	0.1157761	0.0118570505
2.0800585495441342e-08	0.99088854	-0.13060208	-0.032910887	-0.35699576	0.04705311	0.011857083
2.0946418916927378e-08	0.9973256	0.06525832	-0.03291079	-0.35931492	-0.023511164	0.011857048
2.1091998573339156e-08	0.9655095	0.25827992	-0.032910965	-0.34785223	-0.093052685	0.011857111
2.1237743564674645e-08	0.8966051	0.4416065	-0.032910902	-0.3230275	-0.15910128	0.011857087
2.1383229754397745e-08	0.79348373	0.60770094	-0.032911234	-0.28587508	-0.21894154	0.011857207
2.1529430894063352e-08	0.659279	0.7511779	-0.032910734	-0.23752397	-0.27063316	0.011857028
2.1674250670787298e-08	0.5012119	0.86469847	-0.032910928	-0.18057583	-0.3115322	0.011857098
2.181911733190935e-08	0.32408205	0.9454564	-0.032910816	-0.11675977	-0.34062755	0.011857057
2.1964995579581712e-08	0.13330847	0.99052805	-0.0329107	-0.048028164	-0.3568659	0.011857015
2.2110163776438485e-08	-0.061639313	0.99755585	-0.032910757	0.022207314	-0.35939786	0.0118570365
2.2255384686524184e-08	-0.25430793	0.96656317	-0.0329109	0.09162165	-0.34823185	0.011857087
2.240129851971488e-08	-0.43812028	0.8983137	-0.032910448	0.15784529	-0.32364306	0.011856924
2.25469523140035e-08	-0.60479033	0.79570454	-0.032910343	0.21789292	-0.28667516	0.011856886
2.269253012413464e-08	-0.74819916	0.66265756	-0.03291025	0.26956	-0.23874122	0.011856853
2.283747985499054e-08	-0.8625188	0.5049537	-0.032910816	0.3107469	-0.18192393	0.011857057
2.2983828904561937e-08	-0.9446968	0.32628974	-0.032910917	0.34035385	-0.11755516	0.011857094
2.3129945521668264e-08	-0.9902576	0.1353029	-0.03291094	0.35676843	-0.048746716	0.011857102
2.3275764515315046e-08	-0.9976252	-0.060505755	-0.032910865	0.35942283	0.021798916	0.011857074
2.3421522191409408e-08	-0.9666682	-0.2539086	-0.032910742	0.3482697	0.0914778	0.011857031
2.3567218013858447e-08	-0.8986234	-0.4374847	-0.032910664	0.32375464	0.15761629	0.011857001
2.3712147613135577e-08	-0.79672027	-0.60345155	-0.032910794	0.28704113	0.21741056	0.01185705
2.3857645653249835e-08	-0.6639937	-0.74701357	-0.032910775	0.2392226	0.26913288	0.011857042
2.4002818511045088e-08	-0.50623363	-0.86176825	-0.03291098	0.18238506	0.31047648	0.011857117
2.4148549662857642e-08	-0.3284779	-0.9439382	-0.03291078	0.1183435	0.34008056	0.011857044
2.4294437843627434e-08	-0.13790213	-0.9898989	-0.032910872	0.04968316	0.3566392	0.0118570775
2.4440753347768767e-08	0.05855342	-0.99774164	-0.032910854	-0.021095533	0.35946482	0.01185707
2.4586435714618102e-08	0.25191835	-0.96718884	-0.032910794	-0.09076074	0.34845728	0.01185705
2.4732250444764325e-08	0.4357789	-0.8994519	-0.032910865	-0.15700173	0.3240531	0.011857074
2.4877819995500612e-08	0.6026272	-0.797344	-0.032910746	-0.21711358	0.2872659	0.011857032
2.5023433620030755e-08	0.74643	-0.6646497	-0.03291044	-0.2689226	0.23945896	0.011856921
2.5168672863321205e-08	0.8613671	-0.5069159	-0.032910287	-0.310332	0.18263087	0.011856867
2.531498452504983e-08	0.94393367	-0.32849097	-0.032910194	-0.34007895	0.1183482	0.0118568335
2.5459264586949983e-08	0.98959565	-0.14006208	-0.03291056	-0.35652995	0.050461344	0.011856965
2.5605201980953235e-08	0.9978958	0.055866312	-0.032910664	-0.35952032	-0.020127427	0.011857001
2.5750767557716038e-08	0.967903	0.24915999	-0.032910865	-0.34871456	-0.08976698	0.011857074
2.5896466712604354e-08	0.9007581	0.43307257	-0.03291087	-0.32452372	-0.15602672	0.011857076
2.6041780763682842e-08	0.79935896	0.5999519	-0.032910608	-0.28799176	-0.21614973	0.0118569825
2.6186254937227734e-08	0.6682887	0.7431737	-0.032910645	-0.24076998	-0.26774943	0.0118569955
2.6332028163696435e-08	0.5104999	0.85924786	-0.03291016	-0.18392211	-0.30956846	0.01185682
2.6477419108652063e-08	0.33358878	0.9421441	-0.03291019	-0.12018484	-0.33943415	0.011856832
2.6623445170270215e-08	0.14308392	0.9891632	-0.032910608	-0.051550046	-0.35637414	0.0118569825
2.6768899337656305e-08	-0.052169	0.99809587	-0.032910716	0.018795364	-0.3595924	0.01185702
2.6914383530741764e-08	-0.24546655	0.9688463	-0.032910854	0.0884363	-0.34905443	0.01185707
2.706036139858601e-08	-0.42997313	0.90224165	-0.032911144	0.15491003	-0.32505816	0.011857174
2.7205999350695667e-08	-0.59755033	0.8011558	-0.032910418	0.21528448	-0.28863916	0.011856914
2.735144017623845e-08	-0.74203676	0.66955096	-0.03291056	0.26733983	-0.24122477	0.011856965
2.7496869159970764e-08	-0.8581418	0.51235694	-0.032910638	0.30916998	-0.18459116	0.011856992
2.7643146395148587e-08	-0.9418211	0.3344998	-0.03291054	0.33931783	-0.12051307	0.011856956
2.7788730697094214e-08	-0.98893875	0.14462732	-0.032910578	0.35629332	-0.052106105	0.011856971
2.7934779076435542e-08	-0.9981352	-0.051409803	-0.032910675	0.35960656	0.018521845	0.011857006
2.8080287468928748e-08	-0.9690249	-0.24476044	-0.032910593	0.34911877	0.0881819	0.011856977
2.8225754171637163e-08	-0.90285045	-0.42869335	-0.032910883	0.3252775	0.15444896	0.011857081
2.8371888012691358e-08	-0.8016036	-0.59694946	-0.032911118	0.28880054	0.21506801	0.011857166
2.851789369118709e-08	-0.66954094	-0.7420458	-0.03291051	0.24122116	0.2673431	0.011856947
2.8663714654994447e-08	-0.51189417	-0.8584179	-0.032910414	0.1844244	0.30926943	0.011856913
2.880803955126303e-08	-0.33646783	-0.94111973	-0.03291046	0.1212221	0.33906513	0.0118569285
2.8954108136843364e-08	-0.14604987	-0.9887297	-0.032910787	0.052618615	0.356218	0.011857047
2.9099724244506543e-08	0.04939347	-0.998237	-0.03291074	-0.017795403	0.35964322	0.011857029
2.924496876229391e-08	0.24245845	-0.9696035	-0.032910764	-0.087352544	0.34932718	0.011857038
2.9390309596716718e-08	0.42639446	-0.9039385	-0.032910842	-0.15362072	0.32566953	0.011857066
2.953604617619334e-08	0.5944768	-0.8034391	-0.03291097	-0.21417718	0.28946176	0.011857113
2.968129636020195e-08	0.7392954	-0.6725765	-0.032911383	-0.26635218	0.24231479	0.011857262
2.9826938719699854e-08	0.8561912	-0.51561	-0.032911073	-0.30846727	0.18576318	0.01185715
2.9971902899437414e-08	0.93994606	-0.33973268	-0.032910638	-0.3386423	0.122398354	0.011856992
3.011700542648138e-08	0.98802155	-0.15076599	-0.032910787	-0.3559628	0.054317728	0.011857047
3.026198687208189e-08	0.99849916	0.043776575	-0.03291075	-0.35973772	-0.015771754	0.011857033
3.0407536154105284e-08	0.9708549	0.23739797	-0.03291077	-0.3497781	-0.08552937	0.01185704
3.055289271443355e-08	0.90614086	0.4216938	-0.032911032	-0.32646298	-0.15192717	0.011857135
3.069780449268033e-08	0.8071702	0.5894008	-0.032910954	-0.290806	-0.21234842	0.011857105
3.084299746913386e-08	0.67728084	0.7349883	-0.032910343	-0.24400967	-0.26480043	0.011856886
3.098828404387037e-08	0.52147543	0.8526315	-0.03291038	-0.18787636	-0.3071847	0.0118569005
3.113310495375705e-08	0.34635958	0.93752444	-0.032910585	-0.124785885	-0.3377698	0.011856973
3.127882195098692e-08	0.15692088	0.9870627	-0.032910634	-0.056535207	-0.3556174	0.011856991
3.142471948741286e-08	-0.038784035	0.99870557	-0.032910686	0.013973052	-0.35981208	0.01185701
3.1570321725339694e-08	-0.23261063	0.97201306	-0.032910753	0.08380459	-0.35019535	0.011857035
3.171600041653327e-08	-0.417616	0.90802747	-0.032910645	0.15045804	-0.32714272	0.0118569955
3.1861387162209474e-08	-0.5862825	0.8094379	-0.032910872	0.21122491	-0.29162303	0.0118570775
3.2008021953175004e-08	-0.73368967	0.6786872	-0.032910846	0.26433256	-0.24451634	0.011857068
3.215391546416817e-08	-0.85205954	0.52240926	-0.032910828	0.30697864	-0.18821278	0.011857061
3.230050085272249e-08	-0.93796766	0.3451576	-0.032910913	0.3379295	-0.12435283	0.011857091
3.2445564794431015e-08	-0.987126	0.15652207	-0.032910924	0.3556402	-0.056391522	0.011857096
3.259063208861381e-08	-0.9987329	-0.038072392	-0.03291087	0.35982192	0.013716661	0.011857076
3.273643736113615e-08	-0.9721149	-0.23218448	-0.032910768	0.350232	0.08365106	0.011857039
3.288207960412264e-08	-0.9082308	-0.41717362	-0.032910667	0.32721597	0.15029866	0.011857003
3.302777842946562e-08	-0.8094772	-0.5862283	-0.03291064	0.29163718	0.21120542	0.011856995
3.317395233366354e-08	-0.67919266	-0.73322177	-0.03291108	0.24469848	0.26416403	0.011857152
3.331881754316638e-08	-0.5241745	-0.85097474	-0.032910846	0.18884878	0.30658782	0.011857068
3.346482639424128e-08	-0.34782904	-0.9369802	-0.032910876	0.12531531	0.33757374	0.011857079
3.3610257193889965e-08	-0.15884694	-0.9867546	-0.032910887	0.057229124	0.3555064	0.011857083
3.37553804352434e-08	0.035794567	-0.9988172	-0.03291084	-0.01289601	0.35985228	0.011857064
3.3900942451744814e-08	0.229648	-0.97271717	-0.03291079	-0.08273721	0.35044903	0.011857048
3.4046466815249745e-08	0.41465938	-0.9093814	-0.03291086	-0.14939283	0.32763052	0.011857072
3.4192141854071104e-08	0.5839617	-0.81111383	-0.03291066	-0.21038882	0.29222682	0.011857001
3.4338208632192595e-08	0.73122114	-0.6813462	-0.032910768	-0.2634432	0.24547434	0.011857039
3.448374249956243e-08	0.84990263	-0.52591103	-0.032910477	-0.30620158	0.18947439	0.011856934
3.46296022283885e-08	0.93619734	-0.3499308	-0.032910697	-0.3372917	0.1260725	0.011857014
3.477621867232761e-08	0.98665136	-0.15948689	-0.03291072	-0.35546917	0.057459682	0.011857022
3.492095992383158e-08	0.99885815	0.03463241	-0.032910775	-0.35986704	-0.01247731	0.011857042
3.5066863104840125e-08	0.97287863	0.22896294	-0.0329109	-0.3505072	-0.082490414	0.011857087
3.5212455705096636e-08	0.9096353	0.41410202	-0.032910682	-0.32772198	-0.149192	0.011857009
3.535778531040483e-08	0.81174344	0.5830863	-0.032910746	-0.29245365	-0.21007341	0.011857032
3.550448834684843e-08	0.68150896	0.7310694	-0.032910544	-0.24553297	-0.2633885	0.011856957
3.5649387040068634e-08	0.5268273	0.849335	-0.032910515	-0.18980451	-0.30599707	0.011856949
3.579584638465305e-08	0.35018453	0.93610245	-0.032910317	-0.12616394	-0.33725747	0.011856878
3.5941304322137014e-08	0.16129448	0.9863575	-0.032910552	-0.058110915	-0.35536337	0.011856962
3.6086741308285725e-08	-0.033736948	0.9988888	-0.032910623	0.012154694	-0.35987806	0.011856987
3.623231865778073e-08	-0.22766325	0.97318363	-0.032910857	0.08202215	-0.35061705	0.011857072
3.637800806635775e-08	-0.41300568	0.9101336	-0.03291078	0.14879704	-0.3279015	0.011857044
3.652358772239838e-08	-0.582381	0.8122495	-0.032910682	0.20981929	-0.29263598	0.011857009
3.666820973715383e-08	-0.72856295	0.6841879	-0.03291036	0.26248556	-0.24649811	0.011856891
3.681457464499527e-08	-0.8484392	0.52826875	-0.032910515	0.30567434	-0.19032383	0.011856949
3.695818816121087e-08	-0.9341518	0.35535538	-0.032910768	0.33655477	-0.12802689	0.011857039
3.710342253482109e-08	-0.98540056	0.1670408	-0.032910712	0.35501862	-0.060181197	0.01185702
3.7248886084704746e-08	-0.9990674	-0.027950881	-0.032910746	0.35994247	0.0100700995	0.011857032
3.739441624381864e-08	-0.97450006	-0.22196092	-0.032910783	0.35109136	0.07996772	0.011857046
3.75400152500147e-08	-0.912586	-0.40755838	-0.032910917	0.32878506	0.1468345	0.011857094
3.7685558366022804e-08	-0.8157438	-0.5774764	-0.032911047	0.2938949	0.20805228	0.01185714
3.783172736140632e-08	-0.68705297	-0.7258616	-0.03291119	0.24753034	0.26151228	0.011857191
3.797725050316149e-08	-0.5325624	-0.84575063	-0.03291112	0.19187072	0.30470568	0.011857167
3.8122539015953844e-08	-0.35797995	-0.9331491	-0.0329109	0.12897246	0.33619344	0.011857087
3.82675888678993e-08	-0.17005438	-0.98488504	-0.032910947	0.06126692	0.35483283	0.011857104
3.841352785724838e-08	0.025535388	-0.99913204	-0.03291088	-0.009199848	0.3599657	0.01185708
3.855929956095414e-08	0.21992213	-0.9749622	-0.032910824	-0.0792332	0.35125783	0.011857061
3.87048780627994e-08	0.40562344	-0.9134476	-0.03291085	-0.14613737	0.32909545	0.011857069
3.885044360989404e-08	0.57577085	-0.8169485	-0.032910902	-0.20743781	0.2943289	0.011857087
3.899637821488805e-08	0.72420627	-0.68879783	-0.032910552	-0.26091588	0.24815899	0.011856962
3.914121628730422e-08	0.8439712	-0.53537804	-0.032910492	-0.30406463	0.19288516	0.01185694
3.928722588728187e-08	0.9323004	-0.36018455	-0.03291091	-0.33588767	0.12976673	0.01185709
3.9433030428213823e-08	0.98465496	-0.17138131	-0.032910842	-0.35474992	0.061744988	0.011857066
3.9578571978018684e-08	0.9991784	0.023653904	-0.03291085	-0.35998243	-0.008521991	0.011857069
3.972402557076032e-08	0.975468	0.21766777	-0.03291096	-0.35144007	-0.078421	0.01185711
3.9869753441137376e-08	0.9143015	0.40369505	-0.032910835	-0.3294031	-0.14544262	0.011857064
4.0015578709963624e-08	0.81796044	0.57433224	-0.032911073	-0.2946935	-0.20691952	0.01185715
4.016148421201323e-08	0.6900981	0.7229671	-0.03291116	-0.24862745	-0.26046944	0.011857181
4.0306775734224003e-08	0.5363756	0.8433375	-0.032911494	-0.19324455	-0.3038363	0.011857301
4.045297230956319e-08	0.36104736	0.93196666	-0.03291131	-0.13007757	-0.3357675	0.011857236
4.0598837191113545e-08	0.17221124	0.9845101	-0.03291104	-0.062043995	-0.3546977	0.011857137
4.074408018039427e-08	-0.022410987	0.9992071	-0.032910954	0.008074195	-0.35999274	0.011857105
4.08899079949084e-08	-0.21694638	0.9756286	-0.03291095	0.07816109	-0.35149795	0.011857105
4.103564588189798e-08	-0.4030316	0.9145942	-0.032910943	0.14520359	-0.32950854	0.011857102
4.11815452526695e-08	-0.5738199	0.81832004	-0.03291055	0.20673493	-0.29482305	0.011856961
4.132700212806836e-08	-0.7221157	0.6909891	-0.03291084	0.2601627	-0.24894847	0.011857064
4.147236964522657e-08	-0.8427297	0.53733	-0.032911304	0.30361736	-0.1935884	0.011857232
4.161802764774473e-08	-0.93129337	0.36278033	-0.032910842	0.33552492	-0.13070193	0.011857066
4.176321447246085e-08	-0.9840285	0.17494263	-0.032910753	0.3545242	-0.06302805	0.011857035
4.190910562527117e-08	-0.99924785	-0.020508755	-0.03291078	0.3600074	0.0073888623	0.011857044
4.205481286155974e-08	-0.9760749	-0.2149297	-0.032911003	0.3516587	0.07743454	0.011857124
4.220037176135773e-08	-0.91552204	-0.40091938	-0.03291064	0.3298428	0.14444259	0.011856995
4.234557720972671e-08	-0.8201769	-0.5711627	-0.03291077	0.29549205	0.20577759	0.01185704
4.2490834273230984e-08	-0.69352114	-0.7196842	-0.032910667	0.2498607	0.25928667	0.011857003
4.263714319414993e-08	-0.5392217	-0.84152055	-0.032910578	0.19426993	0.3031817	0.011856971
4.2782509807611523e-08	-0.36523834	-0.9303321	-0.032910723	0.13158749	0.33517858	0.011857023
4.292782074658187e-08	-0.1773774	-0.9835925	-0.032910526	0.063905254	0.35436714	0.011856953
4.3073331799814474e-08	0.017522976	-0.9993047	-0.03291062	-0.0063131503	0.36002794	0.011856986
4.3219026761161614e-08	0.21199507	-0.9767164	-0.0329107	-0.07637724	0.35188985	0.011857015
4.336444957199797e-08	0.3979971	-0.9167962	-0.03291073	-0.14338978	0.3303019	0.011857027
4.350970739212048e-08	0.5686017	-0.8219543	-0.032910712	-0.20485494	0.29613242	0.01185702
4.365450281242475e-08	0.71708596	-0.6962073	-0.032911103	-0.2583506	0.25082847	0.011857161
4.38006965113685e-08	0.83941525	-0.5424932	-0.032911096	-0.3024232	0.1954486	0.011857158
4.3945947991855724e-08	0.9288469	-0.36899927	-0.032911103	-0.3346435	0.13294247	0.011857161
4.409110679555279e-08	0.98283005	-0.1815547	-0.03291083	-0.35409245	0.06541024	0.011857063
4.423648062773304e-08	0.9993726	0.013093662	-0.032910757	-0.36005238	-0.0047173644	0.0118570365
4.4381860114874385e-08	0.9777345	0.20724918	-0.032910693	-0.35225666	-0.07466741	0.011857013
4.452741747679605e-08	0.9186468	0.39370692	-0.032910906	-0.33096862	-0.1418441	0.011857089
4.4673149235077276e-08	0.824243	0.56527907	-0.03291061	-0.296957	-0.20365785	0.011856984
4.481849581999076e-08	0.6985665	0.7147879	-0.032911133	-0.25167844	-0.25752264	0.011857171
4.496507523370855e-08	0.544821	0.83790624	-0.0329109	-0.19628724	-0.30187953	0.011857087
4.511069832443875e-08	0.37111205	0.92800474	-0.03291088	-0.13370366	-0.33434004	0.01185708
4.525685213846469e-08	0.18247454	0.9826597	-0.032910813	-0.06574164	-0.3540311	0.011857055