# t (s)	mx ()	my ()	mz ()	B_demagx (T)	B_demagy (T)	B_demagz (T)
0	0.6666667	0.6666667	0.33333334	-0.24018563	-0.24018563	-0.12009282
1.023e-12	0.67612433	0.65774864	0.33199802	-0.24359304	-0.23697264	-0.11961172
2.047e-12	0.68543327	0.6487233	0.33066496	-0.24694681	-0.233721	-0.119131446
4.095e-12	0.7035762	0.6303889	0.32800967	-0.25348333	-0.22711554	-0.11817481
8.191e-12	0.7379551	0.5926715	0.32274252	-0.26586926	-0.21352676	-0.11627717
1.6383e-11	0.79907405	0.5137099	0.31238276	-0.28788912	-0.18507859	-0.11254476
3.2767e-11	0.8912806	0.34661326	0.29236653	-0.32110918	-0.124877274	-0.10533335
5.621503996682173e-11	0.95869565	0.10241203	0.26535746	-0.34539735	-0.03689684	-0.09560257
8.129940370244413e-11	0.9603407	-0.14431448	0.23857734	-0.34599	0.051993392	-0.085954264
1.0836477654266956e-10	0.9017479	-0.37666848	0.21206522	-0.3248803	0.13570553	-0.07640252
1.378421737723473e-10	0.79239726	-0.5809967	0.18587507	-0.28548366	0.20932057	-0.06696678
1.702306398602985e-10	0.6448044	-0.74738854	0.160118	-0.2323091	0.26926792	-0.05768706
2.061486945199527e-10	0.47330683	-0.8705005	0.13494267	-0.17052224	0.31362256	-0.04861693
2.4640340021096853e-10	0.29261225	-0.94982266	0.110522315	-0.105421886	0.34220064	-0.03981881
2.9201290692659487e-10	0.11674731	-0.989336	0.08708853	-0.042061538	0.35643643	-0.031376123
3.442003875685155e-10	-0.041744683	-0.9970143	0.06496229	0.015039709	0.35920274	-0.023404513
4.044043015355203e-10	-0.17262834	-0.98397934	0.044545162	0.062194265	0.35450655	-0.01604866
4.739995484398795e-10	-0.26815644	-0.9630152	0.026343422	0.09661099	0.3469536	-0.009490967
5.535442478037201e-10	-0.32341054	-0.9461956	0.010930727	0.11651784	0.34089386	-0.0039381054
6.420879328795801e-10	-0.33750907	-0.94132143	-0.0012920431	0.12159723	0.3391378	0.00046549528
7.374901575203e-10	-0.314031	-0.94935614	-0.0103728715	0.1131386	0.3420325	0.0037371214
8.387509366987634e-10	-0.2584887	-0.9658674	-0.016848449	0.09312791	0.34798118	0.006070133
9.463944140739508e-10	-0.17522436	-0.98429686	-0.021361094	0.06312956	0.35462093	0.0076959413
1.0624002053751251e-09	-0.06647847	-0.99748814	-0.02445654	0.023950756	0.3593734	0.008811164
1.1892834596484031e-09	0.066407	-0.99743986	-0.026530659	-0.02392501	0.35935608	0.009558424
1.331813290118726e-09	0.22367433	-0.9742651	-0.027884943	-0.08058503	0.35100675	0.010046342
1.5028542269198555e-09	0.4115107	-0.9109513	-0.028751172	-0.14825842	0.3281961	0.010358427
1.5028542269198555e-09	0.4115107	-0.9109513	-0.028751172	-0.14825842	0.3281961	0.010358427
1.6792424048488883e-09	0.591831	-0.80553323	-0.029194444	-0.21322393	0.2902162	0.010518128
1.8564800191967878e-09	0.7484905	-0.662493	-0.029412199	-0.269665	0.23868193	0.010596581
2.0212441361261678e-09	0.86452466	-0.50172305	-0.029513571	-0.31146955	0.18076	0.010633104
2.1816568938837483e-09	0.94500184	-0.32572624	-0.029564606	-0.34046382	0.11735214	0.010651491
2.3398479316140776e-09	0.98971754	-0.13994202	-0.029590769	-0.35657388	0.05041809	0.010660915
2.4971910755439813e-09	0.9983077	0.050054297	-0.029604437	-0.35966873	-0.018033484	0.01066584
2.653875986851882e-09	0.9709296	0.23752645	-0.029611511	-0.349805	-0.085575655	0.010668388
2.809930031193368e-09	0.9089734	0.4158008	-0.029615544	-0.3274835	-0.14980406	0.010669842
2.966628550028473e-09	0.81414783	0.57990193	-0.029617343	-0.29331988	-0.20892617	0.010670491
3.122761500778764e-09	0.6905399	0.72268766	-0.029618787	-0.24878663	-0.26036876	0.010671009
3.279260011448677e-09	0.54190284	0.8399191	-0.029619824	-0.19523591	-0.30260473	0.010671383
3.435883435636071e-09	0.37368602	0.9270823	-0.029619886	-0.13463101	-0.33400777	0.010671405
3.590364229196501e-09	0.19458982	0.9804374	-0.029619928	-0.07010652	-0.35323048	0.010671422
3.7466766552358844e-09	0.006473373	0.99954027	-0.029619817	-0.0023322166	-0.36011276	0.010671381
3.902837145823749e-09	-0.18169318	0.98290914	-0.029619744	0.06546013	-0.35412097	0.010671354
4.0588730434187064e-09	-0.3632297	0.9312288	-0.029619727	0.13086382	-0.33550167	0.010671348
4.215030712068451e-09	-0.5319394	0.84626424	-0.029619776	0.1916463	-0.30489075	0.010671366
4.370752176299669e-09	-0.6812654	0.7314371	-0.02961994	0.24544522	-0.263521	0.010671426
4.525986590003203e-09	-0.8060478	0.59110886	-0.029619543	0.29040164	-0.21296376	0.010671282
4.68194296178309e-09	-0.90275687	0.42913035	-0.029619666	0.32524383	-0.1546064	0.010671327
4.838513414106352e-09	-0.9674963	0.2511451	-0.029619731	0.34856802	-0.09048216	0.010671349
4.994342811384735e-09	-0.99744314	0.06503866	-0.029619742	0.3593572	-0.023432024	0.010671354
5.1508713783280545e-09	-0.9918124	-0.124221265	-0.029619727	0.3573286	0.044754237	0.010671348
5.306850023110078e-09	-0.95079863	-0.3083904	-0.0296199	0.34255219	0.11110641	0.010671411
5.463021776545047e-09	-0.8757933	-0.48177686	-0.029620014	0.3155294	0.1735738	0.010671452
5.618435734237417e-09	-0.77009046	-0.6372468	-0.02961966	0.277447	0.22958627	0.010671324
5.773170562193919e-09	-0.63777953	-0.7696494	-0.029619755	0.22977822	0.27728808	0.010671359
5.92904366608773e-09	-0.4818967	-0.87572736	-0.029619586	0.17361698	0.31550568	0.010671297
6.083753218441925e-09	-0.31020638	-0.95020777	-0.02961986	0.111760676	0.34233934	0.010671396
6.240785931121379e-09	-0.124848776	-0.9917336	-0.029619832	0.044980317	0.35730022	0.0106713865
6.396705142735772e-09	0.06367132	-0.9975313	-0.029619765	-0.022939403	0.35938907	0.010671362
6.55267356597581e-09	0.24998224	-0.9677974	-0.029619856	-0.0900632	0.34867653	0.010671396
6.7086916977370084e-09	0.4274409	-0.903558	-0.029619569	-0.15399773	0.32553244	0.0106712915
6.864136665453278e-09	0.58909965	-0.8075174	-0.029619597	-0.2122399	0.2909311	0.010671303
7.020114936147883e-09	0.7303531	-0.6824274	-0.029619614	-0.2631305	0.24586388	0.010671306
7.176126234788088e-09	0.8456046	-0.5329875	-0.02961989	-0.30465305	0.19202389	0.010671407
7.332861616163395e-09	0.93103355	-0.36372954	-0.02962025	-0.33543128	0.13104391	0.010671537
7.489326541810544e-09	0.98290664	-0.18170689	-0.029620102	-0.35412002	0.06546508	0.010671483
7.646456600895277e-09	0.99953216	0.0076356623	-0.029619958	-0.36010987	-0.0027509644	0.010671431
7.80253700700435e-09	0.9802655	0.19545417	-0.02961985	-0.3531685	-0.07041792	0.010671394
7.958619736949759e-09	0.9260233	0.3763024	-0.029620273	-0.3336262	-0.13557363	0.010671547
8.11558654464263e-09	0.8381573	0.5446238	-0.02962	-0.30196998	-0.19621621	0.010671446
8.270932541237622e-09	0.721409	0.6918756	-0.02961974	-0.2599081	-0.24926785	0.010671353
8.425758168354893e-09	0.57967716	0.81430775	-0.029619714	-0.20884517	-0.29337752	0.010671344
8.582394430273448e-09	0.4156	0.9090651	-0.029619636	-0.14973173	-0.32751656	0.010671316
8.738808993780154e-09	0.23685205	0.97109413	-0.029619545	-0.085332684	-0.34986427	0.010671282
8.894516753324055e-09	0.05047217	0.99828625	-0.02961971	-0.018184034	-0.359661	0.010671344
9.050102919399648e-09	-0.13755468	0.99005127	-0.029619772	0.049557984	-0.3566941	0.010671364
9.206224830964898e-09	-0.32131904	0.9465077	-0.02961958	0.11576432	-0.34100628	0.010671296
9.362160608304752e-09	-0.4934173	0.8692883	-0.029619887	0.1777676	-0.31318587	0.010671407
9.51740272224342e-09	-0.64730513	0.7616553	-0.029620083	0.23321006	-0.27440795	0.010671478
9.673097631108441e-09	-0.77868974	0.62670964	-0.02962004	0.28054512	-0.22578996	0.010671461
9.8300107610496e-09	-0.8831193	0.46821263	-0.02961969	0.31816882	-0.16868691	0.010671336
9.985137873890407e-09	-0.9550689	0.29490036	-0.029619735	0.3440907	-0.10624624	0.010671351
1.0141892266617837e-08	-0.99357456	0.10923542	-0.029619722	0.35796344	-0.039355166	0.010671347
1.0297586838779812e-08	-0.99642813	-0.0790808	-0.02961972	0.35899156	0.028491104	0.0106713455
1.045375680216249e-08	-0.96375364	-0.26514485	-0.029619837	0.34721965	0.095525965	0.010671388
1.0609861492760809e-08	-0.8966898	-0.44166747	-0.02962027	0.323058	0.15912326	0.010671545
1.0765734641800811e-08	-0.7977916	-0.6022052	-0.02962027	0.2874271	0.21696155	0.010671545
1.0921205061768623e-08	-0.6708662	-0.7409866	-0.029620403	0.24169862	0.26696146	0.010671593
1.10767394101527e-08	-0.5201247	-0.8535766	-0.029620184	0.1873897	0.30752525	0.010671513
1.1233315345701754e-08	-0.34977508	-0.93636537	-0.029619293	0.12601641	0.33735225	0.010671191
1.1389544477828e-08	-0.16728432	-0.98546374	-0.029619507	0.060268935	0.35504135	0.01067127
1.1545531962498732e-08	0.020894568	-0.99934286	-0.029619614	-0.0075278617	0.36004168	0.010671306
1.170124234042752e-08	0.20800129	-0.9776801	-0.029619824	-0.07493838	0.35223705	0.010671383
1.1857300256097789e-08	0.38811064	-0.9211368	-0.029619638	-0.13982788	0.33186573	0.010671316
1.2013120696584421e-08	0.55413747	-0.8318981	-0.02961969	-0.19964378	0.29971492	0.010671336
1.2171005046954205e-08	0.7022408	-0.71132314	-0.02962013	-0.25300223	0.25627437	0.010671493
1.2326843115905154e-08	0.8233059	-0.56682456	-0.029619655	-0.29661936	0.20421466	0.010671321
1.2481842794676453e-08	0.9146783	-0.40309602	-0.02961939	-0.32953885	0.1452268	0.010671228
1.263808435121954e-08	0.97420377	-0.22371836	-0.029619735	-0.35098457	0.0806009	0.010671351
1.2793878655380306e-08	0.9988806	-0.03688194	-0.029619893	-0.35987514	0.013287767	0.010671407
1.2950574806856804e-08	0.9878834	0.15234543	-0.029619897	-0.35591307	-0.054886766	0.010671411
1.3106656767549097e-08	0.9416125	0.3353935	-0.029619811	-0.33924264	-0.12083504	0.010671379
1.3262461432495845e-08	0.86191654	0.50618434	-0.029619463	-0.31052995	-0.1823673	0.010671254
1.3417226193380267e-08	0.752407	0.65803224	-0.029620102	-0.27107602	-0.23707482	0.010671483
1.3573518364176184e-08	0.61504453	0.78793585	-0.029619643	-0.22158727	-0.2838763	0.010671318
1.3729155541936141e-08	0.45638695	0.8892883	-0.029619562	-0.16442637	-0.32039136	0.010671288
1.3884911644926818e-08	0.28140023	0.9591333	-0.029619627	-0.101382434	-0.34555507	0.010671312
1.4041485242782713e-08	0.09542926	0.9949955	-0.02961962	-0.0343811	-0.35847542	0.01067131
1.4197470319201344e-08	-0.0932583	0.99520135	-0.029619701	0.033598952	-0.35854957	0.010671338
1.4353358786986856e-08	-0.27851078	0.9599763	-0.029619638	0.100341424	-0.34585875	0.010671316
1.450938097679497e-08	-0.45399523	0.8905117	-0.029619938	0.16356468	-0.32083216	0.010671424
1.4666189688771883e-08	-0.6140479	0.7887129	-0.029619964	0.22122821	-0.28415626	0.010671433
1.4823390372079688e-08	-0.75229955	0.6581552	-0.029619874	0.27103728	-0.23711911	0.010671401
1.497785443669385e-08	-0.8616495	0.5066388	-0.029619921	0.31043375	-0.18253103	0.010671418
1.513365430338494e-08	-0.94143385	0.3358945	-0.029619839	0.33917832	-0.12101555	0.010671389
1.5288868281681746e-08	-0.9876408	0.15391049	-0.029619839	0.35582566	-0.055450626	0.010671389
1.544485590698667e-08	-0.9989677	-0.03444098	-0.029619794	0.35990652	0.012408342	0.010671373
1.560109468030131e-08	-0.9746282	-0.22186176	-0.02961976	0.35113752	0.079932004	0.01067136
1.5757167939499174e-08	-0.9155257	-0.40116772	-0.029620064	0.32984415	0.14453208	0.01067147
1.5913653924165152e-08	-0.82347864	-0.56657356	-0.029619498	0.29668164	0.20412423	0.010671265
1.606891218622362e-08	-0.7029578	-0.7106146	-0.029619608	0.25326055	0.25601912	0.010671306
1.622631080956654e-08	-0.5554669	-0.83101094	-0.02961955	0.20012273	0.29939532	0.010671285
1.6382578313501687e-08	-0.3890849	-0.92072564	-0.029619751	0.1401789	0.33171755	0.010671357
1.653731101409309e-08	-0.21060473	-0.97712255	-0.029619772	0.07587634	0.35203615	0.010671364
1.6694213532017896e-08	-0.022112003	-0.9993167	-0.029619778	0.007966477	0.3600322	0.010671368
1.685033681145381e-08	0.16624717	-0.9856393	-0.029619701	-0.059895273	0.35510457	0.010671338
1.7006373732736922e-08	0.34857294	-0.9368136	-0.02961968	-0.12558329	0.33751372	0.0106713325
1.7161933341117062e-08	0.51797557	-0.85488254	-0.029619707	-0.18661542	0.30799574	0.01067134
1.731805203265252e-08	0.6695238	-0.74219984	-0.029619897	-0.24121496	0.2673986	0.010671411
1.7474336245674736e-08	0.797294	-0.6028641	-0.029619653	-0.28724784	0.21719894	0.010671321
1.7631226724827242e-08	0.8968678	-0.44130594	-0.029619347	-0.32312208	0.158993	0.010671211
1.778647268590409e-08	0.9635836	-0.26576188	-0.029619329	-0.34715837	0.095748276	0.010671206
1.7942738581614614e-08	0.9963864	-0.07960489	-0.02961946	-0.35897654	0.028679924	0.010671252
1.8099086650313317e-08	0.9935456	0.10949856	-0.029619604	-0.35795307	-0.03944997	0.010671305
1.825534610842963e-08	0.9551678	0.2945801	-0.029619563	-0.34412634	-0.10613085	0.01067129
1.8411118169388534e-08	0.8829104	0.46860653	-0.0296198	-0.31809354	-0.16882883	0.010671374
1.8567447073148283e-08	0.7788535	0.6265062	-0.029620165	-0.28060412	-0.22571667	0.010671506
1.872307985435168e-08	0.6475618	0.7614371	-0.02962024	-0.23330255	-0.27432936	0.010671534
1.8879943320558937e-08	0.49200073	0.8700908	-0.029619783	-0.17725724	-0.31347495	0.010671368
1.9036610942177142e-08	0.31893536	0.9473135	-0.029620182	-0.11490552	-0.3412966	0.010671512
1.9192925332329795e-08	0.13482831	0.99042624	-0.029620005	-0.048575733	-0.35682917	0.010671449
1.9348461964123434e-08	-0.053161804	0.99814653	-0.029619861	0.019153051	-0.35961065	0.010671396
1.950451226456907e-08	-0.23987179	0.9703527	-0.0296197	0.086420625	-0.3495971	0.010671338
1.96602677029896e-08	-0.41770148	0.90810144	-0.029619606	0.15048882	-0.32716936	0.010671305
1.9814887219879903e-08	-0.57956874	0.81438494	-0.029619247	0.2088061	-0.2934053	0.010671176
1.9970221195504562e-08	-0.7217412	0.691529	-0.029619245	0.26002777	-0.24914297	0.010671174
2.0125984404891936e-08	-0.8386917	0.5438006	-0.029618671	0.30216253	-0.1959196	0.010670968
2.0283122150486493e-08	-0.92646724	0.37520814	-0.02961935	0.33378613	-0.1351794	0.010671213
2.0439168123509797e-08	-0.98048663	0.19434178	-0.029619867	0.35324818	-0.07001715	0.010671399
2.0596234032717825e-08	-0.99954724	0.0053078104	-0.029619835	0.3601153	-0.0019122896	0.010671388
2.0752115370249225e-08	-0.98275834	-0.18250684	-0.029619768	0.3540666	0.06575327	0.010671362
2.0908240110467067e-08	-0.93088853	-0.36410075	-0.029619848	0.33537906	0.13117765	0.010671392
2.1064284607590587e-08	-0.8458388	-0.5326156	-0.02961984	0.30473745	0.19188991	0.010671389
2.1221767666171582e-08	-0.729435	-0.6834085	-0.029619606	0.26279968	0.24621734	0.010671305
2.137573029873651e-08	-0.58998656	-0.80686975	-0.029619688	0.21255943	0.29069775	0.010671334
2.153146022458871e-08	-0.42811975	-0.90323657	-0.029620174	0.15424232	0.32541662	0.010671509
2.168769353129291e-08	-0.25045556	-0.9676749	-0.029619746	0.090233736	0.3486324	0.010671355
2.1843969465675666e-08	-0.063787736	-0.99752384	-0.02961974	0.022981344	0.35938632	0.010671353
2.2000072366392226e-08	0.12495344	-0.9917204	-0.029619776	-0.04501803	0.35729545	0.010671366
2.2156024161059676e-08	0.30906197	-0.95058066	-0.029619953	-0.11134836	0.3424737	0.010671429
2.231232146871838e-08	0.48252827	-0.87537956	-0.029619586	-0.17384452	0.31538036	0.010671297
2.24678678569071e-08	0.6380302	-0.76944155	-0.029619463	-0.2298685	0.2772132	0.010671254
2.2623286858809867e-08	0.7708248	-0.63635826	-0.029619822	-0.2777115	0.22926615	0.010671383
2.2779403320304124e-08	0.8767571	-0.48002055	-0.029619647	-0.31587666	0.17294104	0.010671319
2.2935686755897103e-08	0.95145583	-0.30635685	-0.029619802	-0.342789	0.11037376	0.010671375
2.3091024199606516e-08	0.9919806	-0.12287122	-0.029619772	-0.3573892	0.044267844	0.010671364
2.3247022337246773e-08	0.9973961	0.065755084	-0.02961975	-0.3593403	-0.023690138	0.010671357
2.3402984569374273e-08	0.96727496	0.25199607	-0.029619813	-0.34848827	-0.09078875	0.010671379
2.355928457681272e-08	0.90251964	0.42962894	-0.029619852	-0.32515836	-0.15478605	0.010671394
2.3715218994438323e-08	0.80573654	0.5915332	-0.029619217	-0.2902895	-0.21311665	0.010671165
2.3869595907794533e-08	0.6816431	0.7310851	-0.029619291	-0.24558133	-0.2633942	0.010671191
2.4024322334185157e-08	0.533399	0.8453451	-0.029619187	-0.19217214	-0.3045596	0.010671154
2.4180552949708636e-08	0.36475652	0.9306317	-0.02961964	-0.1314139	-0.33528653	0.010671318
2.4335729270299407e-08	0.18432958	0.9824182	-0.029619679	-0.066409975	-0.3539441	0.010671331
2.449179824008733e-08	-0.0036801537	0.9995545	-0.029619688	0.00132588	-0.3601179	0.010671334
2.4647645747220533e-08	-0.19129544	0.98108554	-0.029619763	0.068919614	-0.35346395	0.010671362
2.4803678390606982e-08	-0.37231407	0.92763406	-0.02961959	0.13413674	-0.33420655	0.010671299
2.4959159034439618e-08	-0.5394941	0.8414682	-0.029619567	0.19436808	-0.3031628	0.0106712915
2.511562067224005e-08	-0.688436	0.72469205	-0.02961974	0.24802862	-0.2610909	0.010671353
2.5270281688444336e-08	-0.81142503	0.5837054	-0.029619891	0.29233894	-0.21029648	0.010671407
2.5426135083259496e-08	-0.9065955	0.42095995	-0.029619701	0.32662684	-0.1516628	0.010671338
2.5581964007963002e-08	-0.9695068	0.24326819	-0.029619668	0.3492924	-0.08764428	0.010671327
2.5738017596388597e-08	-0.9979544	0.05665348	-0.029619722	0.35954148	-0.020411026	0.010671347
2.5894384813711297e-08	-0.99075925	-0.13235867	-0.029619757	0.3569492	0.047685973	0.0106713595
2.6050288571103518e-08	-0.94826365	-0.3160993	-0.02961993	0.34163892	0.113883756	0.010671422
2.620660623694856e-08	-0.87176675	-0.48902506	-0.029619763	0.31407875	0.17618516	0.010671362
2.6362184335476965e-08	-0.7646498	-0.64376503	-0.029620025	0.27548683	0.23193467	0.010671455
2.6519680700330645e-08	-0.6286209	-0.77714777	-0.029619986	0.22647855	0.27998957	0.0106714405
2.6675759398595255e-08	-0.4712717	-0.8814907	-0.029619629	0.16978902	0.31758207	0.010671314
2.6831817797195953e-08	-0.29713377	-0.9543764	-0.029619446	0.10705088	0.3438412	0.010671248
2.6987044459802614e-08	-0.11339972	-0.9931079	-0.029619467	0.040855475	0.35779536	0.010671254
2.714264975474811e-08	0.074794054	-0.99675906	-0.029619621	-0.026946686	0.35911077	0.010671311
2.7299101956121057e-08	0.26132652	-0.9647959	-0.029619811	-0.094150305	0.3475951	0.010671379
2.745524759050035e-08	0.43815845	-0.89840966	-0.029620081	-0.15785904	0.3236776	0.010671476
2.7611242532404745e-08	0.59919846	-0.80005246	-0.029619643	-0.21587828	0.28824162	0.010671318
2.7766857988764436e-08	0.7385721	-0.6735236	-0.029619234	-0.2660916	0.24265602	0.01067117
2.79223450116412e-08	0.85167056	-0.52323985	-0.029619701	-0.3068385	0.18851203	0.010671338
2.807832172189353e-08	0.93482417	-0.35387355	-0.029619819	-0.336797	0.12749301	0.010671381
2.8234423325056923e-08	0.98469526	-0.17174958	-0.029619662	-0.35476446	0.061877668	0.010671324
2.8390134058568604e-08	0.9994328	0.016030017	-0.029619707	-0.36007404	-0.005775269	0.01067134
2.8546261473022426e-08	0.97857803	0.2037348	-0.029619731	-0.35256052	-0.07340126	0.010671349
2.8702377925327047e-08	0.9227937	0.38415438	-0.029620064	-0.3324626	-0.13840254	0.01067147
2.8858319931462143e-08	0.83418614	0.550687	-0.029620126	-0.30053926	-0.19840065	0.010671493
2.9015889453341514e-08	0.7144922	0.6990162	-0.029619506	-0.25741613	-0.25184047	0.010671269
2.9170676043369248e-08	0.57158977	0.8200049	-0.029619636	-0.20593145	-0.29543006	0.010671316
2.9326548214062e-08	0.407429	0.91275644	-0.029620066	-0.14678788	-0.32884645	0.01067147
2.948241446224915e-08	0.22877592	0.9730284	-0.029620007	-0.08242303	-0.35056117	0.010671449
2.9638680125349122e-08	0.04149992	0.9986994	-0.029619765	-0.014951527	-0.35980988	0.010671362
2.979433220922297e-08	-0.14652453	0.9887635	-0.029619796	0.052789632	-0.35623014	0.010671373
2.995039100685985e-08	-0.3298155	0.9435806	-0.029619923	0.118825406	-0.33995175	0.010671418
3.01065021258445e-08	-0.50139725	0.86471015	-0.029619493	0.1806426	-0.3115364	0.010671264
3.026119997539681e-08	-0.6537881	0.75609785	-0.029619824	0.23554572	-0.27240574	0.010671383
3.041709069676767e-08	-0.78416103	0.61985016	-0.029619828	0.2825163	-0.22331864	0.010671385
3.057466948595588e-08	-0.88756704	0.4597255	-0.0296202	0.31977126	-0.16562918	0.010671521
3.07306857079416e-08	-0.95815957	0.28469825	-0.029619837	0.3452042	-0.10257064	0.010671388
3.088569164887599e-08	-0.9944718	0.10074035	-0.029619629	0.35828674	-0.036294572	0.010671314
3.10411525534054e-08	-0.99574065	-0.08731106	-0.029619694	0.35874385	0.03145629	0.010671337
3.119714416427713e-08	-0.9615889	-0.27289093	-0.029619867	0.34643975	0.098316714	0.010671399
3.135322590999191e-08	-0.8931194	-0.44884348	-0.029619712	0.32177162	0.16170862	0.010671344
3.1508468396430766e-08	-0.79340357	-0.6079748	-0.029619798	0.28584617	0.21904022	0.010671374
3.166405912357799e-08	-0.6653677	-0.74592793	-0.029619562	0.23971765	0.26874173	0.010671288
3.1820378129517814e-08	-0.5129839	-0.857887	-0.029619949	0.18481705	0.30907822	0.010671429
3.1978393460795366e-08	-0.34031042	-0.93984663	-0.02961982	0.1226065	0.33860648	0.010671381
3.2134329345852014e-08	-0.15768157	-0.9870457	-0.029619863	0.056809265	0.35561126	0.010671398
3.228947344257659e-08	0.029604057	-0.99912274	-0.02961981	-0.010665704	0.35996237	0.010671378
3.2445451642375644e-08	0.21683232	-0.97575945	-0.029619833	-0.07812001	0.3515451	0.0106713865
3.260154390207777e-08	0.396462	-0.91757333	-0.029620036	-0.14283669	0.33058184	0.010671459
3.275780585298635e-08	0.56211394	-0.82652926	-0.029619472	-0.20251754	0.2977807	0.010671256
3.291373318740555e-08	0.70737696	-0.7062157	-0.029619519	-0.25485265	0.2544343	0.010671274
3.306952695897646e-08	0.82736033	-0.56089014	-0.029619107	-0.2980801	0.20207663	0.010671124
3.322518019531561e-08	0.9178662	-0.3957834	-0.029619642	-0.3306874	0.14259222	0.010671318
3.3382804715262175e-08	0.9763189	-0.21429957	-0.029619502	-0.35174665	0.077207506	0.010671267
3.3538646836020255e-08	0.9991917	-0.027177898	-0.029619576	-0.3599872	0.009791611	0.010671295
3.3694421754867725e-08	0.9865375	0.16083087	-0.02961964	-0.35542816	-0.057943895	0.010671318
3.385060099671541e-08	0.93865484	0.34358388	-0.02961963	-0.33817708	-0.12378586	0.010671314
3.400711265771898e-08	0.8570339	0.5144081	-0.02961931	-0.30877084	-0.18533012	0.010671198
3.416292023567644e-08	0.745236	0.6661427	-0.029619867	-0.26849246	-0.23999684	0.010671399
3.431941034061374e-08	0.60628486	0.79469573	-0.029619597	-0.21843135	-0.28631175	0.010671303
3.447434013891803e-08	0.4472806	0.8939031	-0.029619815	-0.16114554	-0.32205397	0.010671381
3.462906845521666e-08	0.27278554	0.96161884	-0.029619949	-0.098278746	-0.3464505	0.010671429
3.478625582403229e-08	0.08575777	0.99587566	-0.029619804	-0.030896675	-0.35879248	0.010671377
3.494260217720202e-08	-0.103359036	0.9942031	-0.029619772	0.03723803	-0.3581899	0.010671364
3.509851348224702e-08	-0.2882709	0.9570907	-0.029619778	0.10385778	-0.34481913	0.010671368
3.5254845629565894e-08	-0.46337163	0.88566893	-0.029619548	0.1669428	-0.3190874	0.010671284
3.5410081687244e-08	-0.62084615	0.7833727	-0.029619671	0.22367747	-0.28223228	0.010671329
3.556532951249821e-08	-0.7564189	0.6534167	-0.029619955	0.27252138	-0.23541193	0.010671429
3.572126034432991e-08	-0.86570483	0.49967772	-0.029620204	0.31189477	-0.1800231	0.010671521
3.587912994029365e-08	-0.9449316	0.3259247	-0.029619973	0.3404385	-0.11742363	0.010671438
3.603633328477553e-08	-0.98955566	0.14107572	-0.029619914	0.35651556	-0.05082654	0.010671415
3.6192695173576424e-08	-0.9984149	-0.0478601	-0.029619817	0.35970736	0.017242964	0.010671381
3.634847025853789e-08	-0.9716912	-0.23439069	-0.02961967	0.35007936	0.08444591	0.010671329
3.6504379352297314e-08	-0.9103676	-0.41273907	-0.029619854	0.32798582	0.14870098	0.010671394
3.6660571448486084e-08	-0.8164375	-0.5766738	-0.029619874	0.2941448	0.20776312	0.010671401
3.68163211656501e-08	-0.6937219	-0.71963376	-0.029619906	0.24993303	0.25926852	0.010671413
3.697243667929526e-08	-0.54598844	-0.83726907	-0.029619826	0.19670784	0.30165	0.010671384
3.7128053349342295e-08	-0.37932736	-0.92478836	-0.029619647	0.13666347	0.33318126	0.010671319
3.728452828408612e-08	-0.19819392	-0.9797153	-0.029619472	0.07140499	0.35297024	0.010671256
3.744076590029416e-08	-0.010241908	-0.99950886	-0.029619554	0.0036899382	0.36010146	0.010671286
3.759640495067169e-08	0.17736323	-0.9836997	-0.029619604	-0.06390014	0.35440576	0.010671305
3.775246608307497e-08	0.35915333	-0.93280846	-0.029619476	-0.12939519	0.33607078	0.010671258
3.790796932656822e-08	0.52755845	-0.8490022	-0.02961957	-0.19006793	0.30587718	0.0106712915
3.8063495125465085e-08	0.6773009	-0.7351097	-0.029619563	-0.2440169	0.26484415	0.01067129
3.821928699062303e-08	0.8032413	-0.59491706	-0.029619794	-0.2893905	0.21433578	0.010671373
3.8376080742143446e-08	0.901156	-0.4324819	-0.029619683	-0.32466707	0.1558139	0.0106713325
3.853162976684407e-08	0.9662403	-0.25593442	-0.029619632	-0.3481155	0.09220764	0.010671315
3.868846955336798e-08	0.9971935	-0.068758726	-0.029619548	-0.3592673	0.024772286	0.010671284
3.884396863743206e-08	0.9924185	0.11928198	-0.029619733	-0.357547	-0.04297472	0.010671351
3.900010732755482e-08	0.9522634	0.30383754	-0.029619737	-0.34307998	-0.109466106	0.010671351
3.915583201511812e-08	0.8783476	0.47710422	-0.02961965	-0.31644964	-0.17189035	0.010671321
3.931240021208673e-08	0.7725898	0.63421434	-0.029619014	-0.27834743	-0.22849372	0.01067109
3.946729277387413e-08	0.6406564	0.7672562	-0.029619249	-0.23081467	-0.27642584	0.010671176
3.962418227828792e-08	0.48409605	0.87451345	-0.02961962	-0.17440936	-0.3150683	0.01067131
3.978054482269897e-08	0.3106917	0.9500492	-0.029619502	-0.111935526	-0.34228224	0.010671267
3.993636460385665e-08	0.12681472	0.99148417	-0.029619602	-0.04568861	-0.35721034	0.010671305
4.009242731608147e-08	-0.061866086	0.99764496	-0.029619692	0.022289015	-0.35942993	0.010671336
4.02485147078413e-08	-0.24836913	0.96821254	-0.02961972	0.089482024	-0.3488261	0.0106713455
4.0404358517863606e-08	-0.42574325	0.9043591	-0.029619716	0.15338612	-0.32582104	0.010671344
4.056034997838425e-08	-0.588118	0.8082326	-0.029619122	0.21188623	-0.29118878	0.010671131
4.0715908324675924e-08	-0.7291734	0.6836878	-0.029618822	0.26270545	-0.24631795	0.010671023
4.087227131944151e-08	-0.84490806	0.5340908	-0.029619433	0.30440214	-0.1924214	0.010671243
4.102772042949301e-08	-0.9299869	0.3663976	-0.029619582	0.33505422	-0.13200514	0.010671296
4.118461031148337e-08	-0.98247576	0.18402241	-0.029619675	0.3539648	-0.066299304	0.010671331
4.133987246304975e-08	-0.9995568	-0.0030153196	-0.029619697	0.36011875	0.0010863546	0.010671338
4.149622938697349e-08	-0.98109466	-0.19124864	-0.02961983	0.35346723	0.06890276	0.010671385
4.165217901423968e-08	-0.9276891	-0.3721772	-0.029619893	0.33422637	0.13408741	0.010671407
4.180801235447041e-08	-0.8413164	-0.53973085	-0.02961985	0.30310816	0.19445339	0.010671394
4.1965249718021156e-08	-0.72384983	-0.6893215	-0.029620469	0.2607875	0.24834767	0.010671615
4.2122264988719645e-08	-0.5803918	-0.8137985	-0.029620163	0.20910266	0.293194	0.010671506
4.227795006824288e-08	-0.41744328	-0.9082202	-0.029620022	0.15039578	0.3272121	0.010671455
4.2434092769743756e-08	-0.23913905	-0.9705335	-0.02961986	0.08615664	0.34966227	0.010671396
4.259036647228014e-08	-0.05213813	-0.99820054	-0.029619783	0.018784244	0.3596301	0.010671368
4.2746810228150096e-08	0.1369316	-0.99013764	-0.029619735	-0.049333498	0.35672522	0.010671351
4.290275318720541e-08	0.32051876	-0.94677895	-0.029619781	-0.11547599	0.34110403	0.010671368
4.3059316684534127e-08	0.49334478	-0.8693294	-0.02961974	-0.17774147	0.3132006	0.010671353
4.321541541356783e-08	0.6480313	-0.76103765	-0.029620014	-0.23347169	0.27418542	0.010671452
4.3372709501746005e-08	0.78049856	-0.62445545	-0.029620083	-0.2811968	0.22497782	0.010671478
4.352874163858759e-08	0.8839728	-0.4665991	-0.029619921	-0.31847635	0.16810557	0.010671418
4.3685889871401787e-08	0.9563212	-0.2908136	-0.029619705	-0.3445419	0.10477387	0.01067134
4.384105285917696e-08	0.99382824	-0.106902495	-0.029619653	-0.35805488	0.038514663	0.010671321
4.399700040683533e-08	0.9962147	0.08172497	-0.02961969	-0.35891467	-0.029443745	0.010671336
4.4152979612874244e-08	0.96310854	0.26747853	-0.0296197	-0.3469872	-0.09636675	0.010671338
4.430885100987201e-08	0.895743	0.44358468	-0.029620033	-0.3227169	-0.15981397	0.010671459
4.446448620693283e-08	0.7966762	0.60368013	-0.02961997	-0.28702527	-0.21749292	0.010671437
4.4620011188550333e-08	0.6694452	0.7422707	-0.02962053	-0.24118668	-0.26742417	0.010671638
4.477726039830861e-08	0.51671135	0.85564727	-0.02961995	-0.18615995	-0.30827126	0.010671429
4.4932488690744336e-08	0.34756318	0.9371887	-0.029620068	-0.12521952	-0.3376489	0.01067147
4.508850154595848e-08	0.16521125	0.9858134	-0.029619895	-0.059522044	-0.35516727	0.010671409
4.5244526644067535e-08	-0.023043793	0.9992956	-0.029619819	0.008302181	-0.36002463	0.010671381
4.5400686814854606e-08	-0.21063703	0.9771156	-0.029619828	0.07588798	-0.35203364	0.010671385
4.555671106607535e-08	-0.39055505	0.92010295	-0.029619442	0.14070857	-0.33149326	0.010671247
4.571139019268472e-08	-0.555194	0.8311934	-0.029619679	0.20002444	-0.29946107	0.010671331
4.586719347461579e-08	-0.70134914	0.71220237	-0.029619483	0.252681	-0.25659114	0.010671262
4.6023468566496566e-08	-0.8228949	0.56742126	-0.029619772	0.29647124	-0.20442964	0.010671364
4.6177600641776916e-08	-0.91396123	0.4047192	-0.029619796	0.3292805	-0.14581159	0.010671373
4.6333554438219635e-08	-0.9737267	0.22578532	-0.029619873	0.35081273	-0.08134557	0.010671401
4.6490364201000903e-08	-0.9988473	0.037772544	-0.029619865	0.35986313	-0.013608633	0.010671398
4.664608344657518e-08	-0.98819757	-0.15029448	-0.029619843	0.35602626	0.05414786	0.01067139
4.6802113792039304e-08	-0.94232744	-0.33337933	-0.029619936	0.3395003	0.12010938	0.010671424
4.695869245046463e-08	-0.86252284	-0.5051507	-0.029619915	0.3107484	0.18199489	0.010671416
4.711432804659381e-08	-0.7525009	-0.6579249	-0.029619649	0.27110982	0.23703617	0.010671321
4.727003511309241e-08	-0.61571753	-0.7874101	-0.02961911	0.22182974	0.28368688	0.010671128
4.742516383002045e-08	-0.45769653	-0.888615	-0.029619258	0.16489819	0.32014883	0.01067118
4.758154537467234e-08	-0.28208622	-0.9589318	-0.029619545	0.101629585	0.34548247	0.010671282
4.773777668975529e-08	-0.096553646	-0.99488705	-0.029619724	0.034786195	0.35843635	0.010671347
4.78934693165934e-08	0.09178127	-0.9953386	-0.02961973	-0.03306681	0.35859907	0.010671349
4.8049526759865354e-08	0.27728206	-0.960332	-0.029619673	-0.09989875	0.3459869	0.010671331