# t (s)	mx ()	my ()	mz ()	B_demagx (T)	B_demagy (T)	B_demagz (T)
0	0.6666667	0.6666667	0.33333334	-0.24018563	-0.24018563	-0.12009282
1.023e-12	0.6761142	0.65772843	0.33205858	-0.24358936	-0.23696537	-0.11963354
2.047e-12	0.68541443	0.6486815	0.3307861	-0.24694003	-0.23370597	-0.11917511
4.095e-12	0.70354337	0.63029975	0.32825154	-0.2534715	-0.22708338	-0.118261956
8.191e-12	0.7379066	0.5924693	0.32322448	-0.26585183	-0.21345389	-0.1164508
1.6383e-11	0.7990287	0.5131975	0.3133393	-0.2878728	-0.18489398	-0.112889394
3.2767e-11	0.8912548	0.34508443	0.29424763	-0.32109988	-0.12432647	-0.10601107
5.6186816790207163e-11	0.9581964	0.09875279	0.2685285	-0.34521747	-0.0355785	-0.09674502
8.112955311837008e-11	0.95828336	-0.15024814	0.2431429	-0.34524882	0.05413116	-0.08759914
1.0793981382487934e-10	0.89672136	-0.3851315	0.2180935	-0.32306936	0.13875458	-0.07857439
1.3695722497853906e-10	0.7827133	-0.5915484	0.19346954	-0.2819947	0.21312213	-0.0697029
1.6863238191482698e-10	0.6283164	-0.75930136	0.16935225	-0.22636884	0.2735599	-0.06101396
2.0347333377290598e-10	0.44746447	-0.8823233	0.14588133	-0.16121179	0.31788206	-0.052557893
2.421576287238377e-10	0.2542938	-0.95924836	0.12319598	-0.09161657	0.3455965	-0.04438486
2.8543854999700385e-10	0.06252056	-0.99286723	0.10151778	-0.022524811	0.35770863	-0.03657466
3.342631364536155e-10	-0.11616045	-0.98991466	0.0810907	0.041850105	0.3566449	-0.029215233
3.8973835008766515e-10	-0.27271244	-0.96008253	0.06220535	0.098252416	0.34589702	-0.022411246
4.530734506398535e-10	-0.40120986	-0.9148708	0.045190856	0.14454725	0.3296082	-0.01628129
5.253107750361796e-10	-0.49878874	-0.86619025	0.030402884	0.17970282	0.31206965	-0.010953503
6.069491367888767e-10	-0.5655348	-0.824525	0.0181399	0.20374998	0.29705852	-0.006535415
6.981793143536232e-10	-0.60419565	-0.7967911	0.008468798	0.21767867	0.28706664	-0.0030511252
7.978159161720349e-10	-0.61860186	-0.7857036	0.001283942	0.22286889	0.28307205	-0.00046257663
9.053338115669764e-10	-0.6131646	-0.789946	-0.0038179215	0.22090998	0.2846005	0.0013755148
1.0217400424855524e-09	-0.5911506	-0.806528	-0.007332109	0.21297881	0.2905746	0.0026416008
1.1483429699815865e-09	-0.5544294	-0.83217454	-0.009672355	0.19974893	0.29981452	0.0034847409
1.2854416641272561e-09	-0.5044149	-0.8633893	-0.011160099	0.18172981	0.31106055	0.004020743
1.4405194084291335e-09	-0.43903112	-0.8983905	-0.012094756	0.15817344	0.32367072	0.0043574795
1.6131869850312385e-09	-0.35872045	-0.9333596	-0.012632878	0.12923923	0.33626935	0.004551353
1.8079631791345415e-09	-0.26179975	-0.9650358	-0.0129225	0.094320804	0.34768158	0.0046556983
2.047585704976179e-09	-0.13689242	-0.9904997	-0.013072654	0.049319386	0.3568557	0.004709795
2.393956049692295e-09	0.04852168	-0.99873567	-0.013142293	-0.017481314	0.35982293	0.004734885
2.6732178922668946e-09	0.1974968	-0.9802153	-0.013157153	-0.071153834	0.35315043	0.004740238
2.9313780895234735e-09	0.33141738	-0.94339246	-0.013161944	-0.119402535	0.33988395	0.0047419644
3.18652109883968e-09	0.45752463	-0.88909954	-0.013163662	-0.16483626	0.32032338	0.0047425833
3.4283114297064854e-09	0.56911653	-0.8221516	-0.013163637	-0.20504043	0.2962035	0.004742575
3.684131801322094e-09	0.6766546	-0.7361829	-0.013164671	-0.24378404	0.26523083	0.004742947
3.9497674752321e-09	0.7747202	-0.6321672	-0.013165008	-0.27911496	0.22775622	0.0047430685
4.204231947700585e-09	0.85383666	-0.52037466	-0.0131648015	-0.30761892	0.18747975	0.004742994
4.460483247464781e-09	0.9173165	-0.3979412	-0.013164348	-0.33048934	0.14336963	0.00474283
4.715554502018652e-09	0.9631755	-0.26855138	-0.013164346	-0.34701133	0.09675326	0.00474283
4.966348974111111e-09	0.99056894	-0.13638121	-0.01316452	-0.3568806	0.049135208	0.0047428925
5.221000127703649e-09	0.99991333	0.0003520828	-0.013164479	-0.3602472	-0.00012684784	0.004742878
5.477130247478222e-09	0.9903632	0.13786744	-0.01316449	-0.35680646	-0.049670663	0.004742882
5.733067381706535e-09	0.96201986	0.27266183	-0.0131643815	-0.346595	-0.09823418	0.004742842
5.9876959038916055e-09	0.915704	0.4016379	-0.013164869	-0.3299084	-0.14470148	0.004743018
6.244759965169021e-09	0.85150003	0.52418923	-0.01316466	-0.3067771	-0.18885407	0.0047429428
6.499730915615654e-09	0.7717142	0.63583326	-0.013163873	-0.27803198	-0.22907701	0.0047426596
6.7551360831171745e-09	0.67722744	0.73565614	-0.013163775	-0.24399045	-0.26504102	0.0047426242
7.004198013291938e-09	0.57274586	0.81962734	-0.013163767	-0.20634799	-0.29529405	0.0047426214
7.2615632001160705e-09	0.45399123	0.8909089	-0.013164374	-0.16356325	-0.32097527	0.0047428394
7.518437905818308e-09	0.3267735	0.945011	-0.013164099	-0.11772944	-0.3404671	0.004742741
7.76924909837644e-09	0.19651292	0.98041284	-0.013164502	-0.070799366	-0.3532216	0.004742886
8.026148076924312e-09	0.05939496	0.9981478	-0.013164552	-0.021398721	-0.3596111	0.0047429036
8.283475702526532e-09	-0.07908875	0.99678063	-0.013164535	0.028493967	-0.35911855	0.004742898
8.53856154906529e-09	-0.21487617	0.97655255	-0.013164392	0.07741525	-0.3518308	0.0047428464
8.79558114876468e-09	-0.3475892	0.93755454	-0.013164474	0.12522888	-0.33778065	0.0047428757
9.048458830400544e-09	-0.47168413	0.8816694	-0.013164313	0.16993761	-0.3176465	0.004742818
9.302570003551066e-09	-0.5875795	0.8090594	-0.01316455	0.21169221	-0.29148665	0.0047429036
9.559982454187876e-09	-0.6937651	0.72008103	-0.013164769	0.24994859	-0.25942966	0.004742982
9.821630158774048e-09	-0.7880398	0.6154835	-0.013164847	0.28391373	-0.22174543	0.00474301
1.0075082675091566e-08	-0.864478	0.5024983	-0.013165045	0.31145278	-0.18103932	0.0047430815
1.0339111547359953e-08	-0.9269765	0.37488848	-0.013164784	0.33396965	-0.13506421	0.0047429875
1.0586657551434983e-08	-0.96858925	0.24831758	-0.013164759	0.34896183	-0.08946346	0.0047429786
1.0837762601756389e-08	-0.993228	0.11543384	-0.0131645985	0.35783863	-0.04158832	0.0047429204
1.1092257381385184e-08	-0.99968475	-0.021382496	-0.013164508	0.36016482	0.0077036517	0.0047428883
1.1347167020038936e-08	-0.9873485	-0.15801775	-0.0131644895	0.35572037	0.056930386	0.0047428813
1.1602149392958668e-08	-0.95641446	-0.29171595	-0.013164368	0.34457546	0.10509895	0.0047428384
1.1859654616377141e-08	-0.9068952	-0.42115062	-0.013164268	0.32673478	0.15173148	0.0047428017
1.2122517033789873e-08	-0.8383868	-0.5449169	-0.013164638	0.30205268	0.19632182	0.0047429344
1.2372949907675634e-08	-0.75748205	-0.65272325	-0.013164409	0.27290446	0.23516211	0.0047428524
1.263319702682178e-08	-0.65884656	-0.7521622	-0.013164842	0.23736821	0.2709878	0.004743008
1.289215269413958e-08	-0.5478663	-0.83646244	-0.013164666	0.19738442	0.30135936	0.0047429446
1.3154238426379977e-08	-0.4247172	-0.9052304	-0.013164514	0.15301645	0.32613498	0.0047428906
1.3422505938802584e-08	-0.28993344	-0.9569564	-0.0131643405	0.10445676	0.34477073	0.004742828
1.3686540415991371e-08	-0.15136102	-0.9883909	-0.013164789	0.05453211	0.3560959	0.0047429893
1.394013769893475e-08	-0.0153499115	-0.9997955	-0.013164618	0.005530242	0.36020476	0.004742928
1.4202071228498746e-08	0.12540044	-0.9920189	-0.013164413	-0.04517907	0.35740298	0.0047428543
1.4456241363195846e-08	0.25962174	-0.9656207	-0.013164403	-0.09353611	0.3478923	0.0047428505
1.4706862014910891e-08	0.38722315	-0.9218921	-0.013164392	-0.13950814	0.33213782	0.0047428464
1.496692381550872e-08	0.51215196	-0.858794	-0.013164465	-0.1845173	0.3094049	0.004742873
1.5223717329194726e-08	0.6256717	-0.7799755	-0.013164201	-0.225416	0.28100833	0.004742778
1.5463264295101603e-08	0.7208327	-0.6929841	-0.013163775	-0.25970048	0.24966723	0.0047426242
1.5717274280201615e-08	0.80861396	-0.5881924	-0.013163604	-0.29132617	0.21191303	0.004742563
1.5977371414119927e-08	0.8828268	-0.46951428	-0.013164281	-0.31806344	0.16915587	0.004742807
1.6233707185078493e-08	0.9390489	-0.3435317	-0.013164021	-0.33831903	0.12376706	0.0047427127
1.650945750560857e-08	0.97954714	-0.20078394	-0.013163958	-0.35290968	0.07233812	0.0047426894
1.6763485141111624e-08	0.9977794	-0.065292	-0.013164251	-0.3594784	0.023523299	0.0047427956
1.701688895141975e-08	0.99738324	0.07108717	-0.013164309	-0.35933566	-0.025611173	0.004742816
1.7271812052793804e-08	0.97826403	0.206945	-0.013164459	-0.35244745	-0.07455781	0.0047428706
1.7526595572905877e-08	0.9407529	0.33883741	-0.013164672	-0.338933	-0.122075796	0.0047429474
1.7782947653821245e-08	0.8851565	0.46510717	-0.013164399	-0.3189028	-0.16756809	0.004742849
1.8034452271197556e-08	0.8142281	0.58039594	-0.013164849	-0.2933488	-0.20910412	0.0047430107
1.8283593859285804e-08	0.72924834	0.6841225	-0.013164267	-0.26273245	-0.24647458	0.004742801
1.8538749278429276e-08	0.628641	0.7775842	-0.01316418	-0.2264858	-0.28014678	0.0047427705
1.8797935013767e-08	0.5143162	0.85749966	-0.013164441	-0.18529704	-0.30893862	0.004742864
1.9058245133317616e-08	0.38942373	0.9209648	-0.013164327	-0.14030096	-0.33180374	0.0047428226
1.9320004559680135e-08	0.256133	0.9665519	-0.01316452	-0.092279196	-0.3482278	0.0047428925
1.9572054878790405e-08	0.122949176	0.9923257	-0.013164398	-0.044295937	-0.35751355	0.0047428487
1.982717819838656e-08	-0.0141516905	0.9998132	-0.013164446	0.0050985487	-0.36021113	0.004742866
2.0081300843760812e-08	-0.1504531	0.98852956	-0.013164462	0.054205008	-0.35614586	0.004742871
2.0337465193237502e-08	-0.28499335	0.9584392	-0.013164163	0.10267696	-0.34530497	0.004742764
2.0596065090066025e-08	-0.4153082	0.90958554	-0.013164358	0.14962658	-0.327704	0.0047428343
2.084880373772163e-08	-0.53491175	0.8448054	-0.013164581	0.19271715	-0.30436516	0.004742915
2.109542626696905e-08	-0.6420985	0.76650923	-0.013164687	0.23133421	-0.27615672	0.004742953
2.1344865354546472e-08	-0.738994	0.6735835	-0.013164421	0.2662436	-0.2426776	0.004742857
2.1613555239858622e-08	-0.8284182	0.5599553	-0.0131647	0.2984612	-0.20173982	0.0047429577
2.1868378229224585e-08	-0.8972473	0.4413321	-0.013164366	0.32325885	-0.15900242	0.0047428366
2.2127096007512912e-08	-0.94985443	0.31241524	-0.013164654	0.34221208	-0.11255647	0.004742941
2.2379462296958104e-08	-0.9834305	0.1808072	-0.013164348	0.35430878	-0.06514093	0.00474283
2.262950119067775e-08	-0.9988027	0.04711493	-0.013164433	0.35984707	-0.016974494	0.004742861
2.2883471766008054e-08	-0.9958962	-0.089539945	-0.013164457	0.35879993	0.032259308	0.00474287
2.3138430913368958e-08	-0.9742605	-0.22504058	-0.0131644	0.35100508	0.08107726	0.0047428496
2.339266760353528e-08	-0.93441665	-0.3559388	-0.013164275	0.3366502	0.12823707	0.004742804
2.365164045495622e-08	-0.87584704	-0.4824093	-0.013164816	0.31554878	0.17380166	0.0047429996
2.3918164619138474e-08	-0.79781634	-0.6027569	-0.013164544	0.287436	0.21716031	0.004742901
2.416501914389613e-08	-0.71086067	-0.70320976	-0.013164065	0.25610778	0.25335133	0.0047427285
2.4419363959854406e-08	-0.6081611	-0.7937045	-0.0131640015	0.21910733	0.2859546	0.0047427053
2.466744808880965e-08	-0.496989	-0.86765695	-0.013164717	0.17905441	0.31259808	0.0047429632
2.492762074233027e-08	-0.3709141	-0.92857385	-0.013164789	0.13363235	0.33454514	0.0047429893
2.5174992180861006e-08	-0.244258	-0.9696209	-0.01316478	0.08800089	0.3493335	0.0047429865
2.5430637114936704e-08	-0.10884157	-0.99397194	-0.013164673	0.03921327	0.35810664	0.0047429474
2.568347470895261e-08	0.02712263	-0.99954545	-0.013164515	-0.009771698	0.36011466	0.0047428906
2.5938978769385197e-08	0.16400053	-0.9863725	-0.013164552	-0.05908585	0.35536873	0.0047429036
2.619384815070627e-08	0.29745114	-0.9546463	-0.013164612	-0.10716523	0.34393847	0.004742926
2.6451320350927116e-08	0.42657	-0.90435886	-0.013164248	-0.15368398	0.32582098	0.0047427947
2.6699063373013573e-08	0.5431034	-0.83956265	-0.013164294	-0.19566843	0.30247635	0.0047428114
2.6943447345399173e-08	0.6486028	-0.7610134	-0.013163211	-0.2336776	0.27417672	0.004742421
2.7202504335939116e-08	0.748141	-0.6634093	-0.013163789	-0.26953906	0.23901206	0.004742629
2.7453323492618895e-08	0.83067936	-0.55659544	-0.013164744	-0.29927588	0.20052932	0.0047429735
2.771083784942525e-08	0.89965916	-0.43639472	-0.013164054	-0.3241278	0.15722358	0.004742725
2.7949091548584204e-08	0.9481124	-0.31766286	-0.013164548	-0.34158444	0.11444707	0.0047429027
2.8218010296006438e-08	0.9840374	-0.1774742	-0.013164695	-0.35452744	0.06394012	0.004742956
2.8478439940295503e-08	0.9991858	-0.03813735	-0.013164618	-0.3599851	0.0137400655	0.004742928
2.8731035990279846e-08	0.995124	0.09775036	-0.013164546	-0.3585217	-0.035217345	0.004742902
2.8985986265484112e-08	0.972372	0.23306522	-0.013164747	-0.35032463	-0.08396837	0.0047429744
2.9245268158671053e-08	0.93045795	0.3661622	-0.01316453	-0.3352239	-0.13192035	0.004742896
2.949611699066607e-08	0.8726501	0.48816875	-0.013164184	-0.314397	-0.17587665	0.0047427714
2.9750682401339547e-08	0.79772943	0.60287195	-0.013163948	-0.28740472	-0.21720177	0.0047426866
3.0012004141462766e-08	0.7052589	0.7088277	-0.013163916	-0.25408956	-0.25537533	0.0047426745
3.0271243062853704e-08	0.5997352	0.8000903	-0.013164637	-0.21607167	-0.28825527	0.0047429344
3.052760669866837e-08	0.48388973	0.8750301	-0.01316434	-0.174335	-0.31525448	0.0047428273
3.0780625286621364e-08	0.360515	0.9326605	-0.013164417	-0.12988578	-0.3360175	0.004742855
3.102271448184147e-08	0.2361759	0.9716212	-0.013164436	-0.08508907	-0.35005414	0.0047428627
3.1274245844568744e-08	0.102768235	0.99461824	-0.01316439	-0.03702518	-0.3583395	0.004742846
3.153453422909029e-08	-0.03723626	0.9992198	-0.013164458	0.01341542	-0.35999733	0.00474287
3.1788198489746135e-08	-0.17299776	0.9848343	-0.013164479	0.06232736	-0.35481453	0.004742878
3.204234660339485e-08	-0.3057817	0.95201063	-0.013164035	0.11016655	-0.3429889	0.0047427174
3.2295659545818734e-08	-0.4324379	0.90156764	-0.013164514	0.15579805	-0.32481533	0.0047428906
3.2550261128719306e-08	-0.5516348	0.83398193	-0.013164104	0.19874209	-0.3004657	0.0047427425
3.280299892997002e-08	-0.65971845	0.75139755	-0.013164668	0.23768233	-0.27071235	0.0047429465
3.306830447880625e-08	-0.7600097	0.6497784	-0.013164171	0.2738151	-0.23410115	0.0047427667
3.3316599445369766e-08	-0.8398689	0.5426296	-0.01316463	0.30258664	-0.19549775	0.0047429325
3.357357717408903e-08	-0.9067085	0.4215525	-0.013164404	0.3266675	-0.15187629	0.0047428505
3.382119536869342e-08	-0.95471656	0.29722542	-0.013164461	0.3439638	-0.1070839	0.004742871
3.40875838313663e-08	-0.9874083	0.15764444	-0.013164658	0.35574186	-0.056795888	0.0047429423
3.433960886175443e-08	-0.99965894	0.022555985	-0.013164609	0.36015552	-0.008126434	0.004742924
3.459940370709181e-08	-0.9930326	-0.11710309	-0.013164513	0.35776818	0.042189717	0.0047428897
3.4853696950414e-08	-0.9677404	-0.25160527	-0.013164542	0.34865594	0.09064795	0.0047429
3.511085636564323e-08	-0.92372894	-0.3828207	-0.013164529	0.3327996	0.13792205	0.0047428957
3.536170881036098e-08	-0.86373764	-0.5037698	-0.013164471	0.31118605	0.18149741	0.0047428748
3.5614260201057035e-08	-0.7874346	-0.6162578	-0.0131644625	0.2836957	0.22202438	0.004742872
3.5881673006539883e-08	-0.6908172	-0.7229096	-0.013164764	0.2488865	0.26044875	0.00474298
3.6132017495372903e-08	-0.5873573	-0.80922073	-0.013163819	0.21161214	0.2915448	0.00474264
3.637122588435099e-08	-0.47851163	-0.8779826	-0.013164185	0.17239743	0.3163182	0.0047427714
3.661991233404114e-08	-0.35696405	-0.93402535	-0.0131644225	0.12860644	0.33650917	0.004742857
3.6875051835882226e-08	-0.22563687	-0.9741226	-0.01316413	0.0812921	0.35095537	0.004742752
3.712486117369027e-08	-0.092912376	-0.9955872	-0.013164435	0.033474326	0.3586886	0.0047428617
3.738747406156034e-08	0.048381474	-0.99874216	-0.013164492	-0.017430801	0.35982525	0.004742883
3.7640685877748984e-08	0.1837349	-0.9828877	-0.01316454	-0.06619573	0.35411322	0.0047429
3.789572594894135e-08	0.31660998	-0.94846445	-0.013164587	-0.11406775	0.34171128	0.0047429167
3.815562460258319e-08	0.44586396	-0.89500403	-0.013164383	-0.16063517	0.32245064	0.004742843
3.841378287907625e-08	0.56561834	-0.82456213	-0.01316421	-0.20378008	0.29707193	0.0047427807
3.866062354774074e-08	0.6699373	-0.74230105	-0.013163677	-0.24136394	0.26743507	0.004742589
3.89053734638351e-08	0.76170206	-0.6477937	-0.013164171	-0.2744248	0.23338611	0.0047427667
3.916674694271497e-08	0.8450687	-0.53449565	-0.013164968	-0.30446	0.19256726	0.0047430536
3.9423927536792674e-08	0.9107835	-0.41267434	-0.013164817	-0.32813567	0.14867765	0.0047429996
3.9686165483007586e-08	0.9598125	-0.28033316	-0.013164892	-0.34579974	0.100997984	0.0047430266
3.9954027562549984e-08	0.9901474	-0.13940904	-0.013164639	-0.35672876	0.050226066	0.0047429353
4.020883456582759e-08	0.99990994	-0.0026201236	-0.013164562	-0.360246	0.000943974	0.004742908
4.0462664228467816e-08	0.9909351	0.13369535	-0.013164355	-0.35701254	-0.048167553	0.004742833
4.071722144016848e-08	0.9633591	0.2678919	-0.013164402	-0.3470775	-0.09651567	0.0047428496
4.097261780143716e-08	0.9175187	0.39747474	-0.013164581	-0.3305622	-0.14320156	0.004742915
4.1227796370990794e-08	0.85440016	0.5194489	-0.0131645845	-0.30782196	-0.18714623	0.0047429157
4.148694027210488e-08	0.77381384	0.6332764	-0.013164407	-0.27878845	-0.22815582	0.0047428515
4.174959908934998e-08	0.67678136	0.73606634	-0.013164931	-0.24382973	-0.26518887	0.0047430405
4.201023979643516e-08	0.56711763	0.8235316	-0.013165091	-0.20432025	-0.29670072	0.0047430983
4.2253972105593556e-08	0.45442322	0.8906887	-0.0131651545	-0.16371888	-0.3208959	0.004743121
4.249526511012842e-08	0.3351439	0.942075	-0.0131645845	-0.12074511	-0.3394093	0.0047429157
4.274932308790531e-08	0.20348693	0.97898924	-0.013164751	-0.073311955	-0.3527087	0.004742976
4.300352000589736e-08	0.06794925	0.997602	-0.013164642	-0.024480648	-0.35941446	0.0047429367
4.3261957585451223e-08	-0.07113796	0.99737966	-0.013164624	0.025629472	-0.35933438	0.0047429297
4.351589236374636e-08	-0.20647623	0.97836304	-0.013164579	0.07438892	-0.3524831	0.004742914
4.376889267514014e-08	-0.33748403	0.94123924	-0.013164561	0.121588215	-0.33910817	0.0047429074
4.4029381567051754e-08	-0.46580613	0.884789	-0.013164462	0.16781989	-0.31877038	0.004742871
4.428504170775339e-08	-0.58285815	0.8124673	-0.0131645575	0.20999122	-0.29271442	0.0047429055
4.4538527920912283e-08	-0.68802613	0.7255665	-0.013164436	0.24788098	-0.26140594	0.0047428627
4.478855329527719e-08	-0.77922	0.62661237	-0.013164442	0.28073615	-0.22575492	0.0047428645
4.50400806294185e-08	-0.85671854	0.5156162	-0.013164754	0.30865717	-0.18576539	0.0047429763
4.530184053663705e-08	-0.92068005	0.39009604	-0.013164988	0.33170116	-0.1405432	0.004743061
4.557414177071234e-08	-0.9678085	0.25134358	-0.013165028	0.3486805	-0.09055367	0.004743075
4.5825622369241694e-08	-0.99288636	0.11833589	-0.013164621	0.35771552	-0.04263387	0.004742929
4.608032765565922e-08	-0.9997408	-0.018574597	-0.01316451	0.360185	0.006692026	0.0047428887
4.633700171316705e-08	-0.9876405	-0.15618238	-0.013164434	0.35582554	0.05626914	0.0047428617
4.6591586310401025e-08	-0.95701724	-0.28973237	-0.013164673	0.34479266	0.10438432	0.0047429474
4.68498891382744e-08	-0.90758455	-0.41966292	-0.013164794	0.3269831	0.1511955	0.004742991
4.7104172925634466e-08	-0.8417793	-0.5396614	-0.013164901	0.30327493	0.19442835	0.0047430303
4.7359747636463095e-08	-0.7597538	-0.6500776	-0.013164328	0.27372292	0.23420891	0.0047428235
4.7609991629814486e-08	-0.66549796	-0.74628353	-0.013164598	0.23976454	0.26886985	0.0047429204
4.786342565391416e-08	-0.55774367	-0.8299089	-0.013164341	0.200943	0.29899827	0.004742828
4.811528234334971e-08	-0.44037473	-0.89771754	-0.013164503	0.15865749	0.32342827	0.0047428864
4.836270801479367e-08	-0.3171784	-0.94827455	-0.01316414	0.114272535	0.34164286	0.0047427556
4.8615118822636685e-08	-0.18571828	-0.98251486	-0.013164308	0.06691029	0.35397887	0.004742816
4.887479633742496e-08	-0.046921127	-0.9988119	-0.013164339	0.01690467	0.35985038	0.0047428273
4.913048884374519e-08	0.09065626	-0.9957953	-0.013164458	-0.03266149	0.35876358	0.00474287
4.9385658815771e-08	0.22624232	-0.9739821	-0.013164028	-0.08151022	0.35090476	0.004742715
4.964072933049439e-08	0.35750976	-0.9338167	-0.013164357	-0.12880307	0.336434	0.004742834
4.98991361497339e-08	0.48361102	-0.8751841	-0.013163361	-0.1742346	0.31530997	0.004742475
5.0151933421171946e-08	0.5979349	-0.8014367	-0.013163488	-0.21542305	0.28874037	0.004742521
5.0407388521816884e-08	0.7022127	-0.7118456	-0.013164565	-0.2529921	0.2564626	0.004742909
5.066452646806468e-08	0.7937708	-0.6080746	-0.013164457	-0.2859785	0.21907617	0.00474287
5.092044714084682e-08	0.86980087	-0.49322745	-0.0131645985	-0.3133705	0.17769921	0.0047429204
5.1172278668995634e-08	0.9285136	-0.37106496	-0.013165006	-0.33452338	0.1336867	0.0047430675
5.1431952529336443e-08	0.97118014	-0.23798314	-0.013164903	-0.34989524	0.08574019	0.0047430303
5.168987088740804e-08	0.9947796	-0.10119415	-0.013164625	-0.3583976	0.036458068	0.0047429306
5.1948784606887e-08	0.99918807	0.038079273	-0.01316455	-0.3599859	-0.01371914	0.0047429036
5.220359668174371e-08	0.9845801	0.17443833	-0.013164663	-0.35472298	-0.06284637	0.004742944
5.245829661188326e-08	0.9514698	0.30746055	-0.013164887	-0.34279406	-0.1107714	0.0047430247
5.271590539861878e-08	0.8997952	0.43611422	-0.013164308	-0.3241768	-0.15712255	0.004742816
5.2965764940491026e-08	0.8331383	0.5529082	-0.013164267	-0.30016172	-0.1992009	0.004742801
5.322575068497204e-08	0.7478039	0.66378915	-0.013164468	-0.2694176	-0.23914889	0.004742874
5.3479507918819444e-08	0.6503769	0.75949764	-0.013164227	-0.23431677	-0.27363062	0.004742787
5.3738602766894374e-08	0.5383973	0.84258837	-0.013164957	-0.19397292	-0.3035664	0.00474305
5.399913776801615e-08	0.4152418	0.90961593	-0.013164682	-0.14960267	-0.32771504	0.004742951
5.4248370612535683e-08	0.2897501	0.9570118	-0.013165038	-0.10439072	-0.3447907	0.0047430787
5.450575782881392e-08	0.1547073	0.98787266	-0.013164507	-0.0557377	-0.35590917	0.004742888
5.476072591768322e-08	0.017999683	0.9997514	-0.013164478	-0.006484897	-0.36018884	0.0047428776
5.50174661123794e-08	-0.119993724	0.9926874	-0.013164427	0.04323115	-0.35764387	0.004742859
5.5272011546645504e-08	-0.25455233	0.9669695	-0.013163964	0.09170971	-0.34837824	0.004742692
5.552908216821296e-08	-0.38558555	0.9225782	-0.013164516	0.13891813	-0.332385	0.0047428906
5.578211508378564e-08	-0.50737137	0.86162704	-0.013164983	0.18279496	-0.31042564	0.004743059
5.6039351623973146e-08	-0.6215184	0.783289	-0.013164383	0.22391966	-0.28220212	0.004742843
5.630084023003083e-08	-0.72532713	0.68827856	-0.01316405	0.2613197	-0.24797189	0.004742723
5.6561818710045666e-08	-0.81461066	0.5798589	-0.013164582	0.29348665	-0.20891064	0.004742915
5.6816894610428426e-08	-0.88635606	0.4628171	-0.013164734	0.31933495	-0.16674303	0.0047429698
5.707201719002124e-08	-0.9414021	0.3370294	-0.013164566	0.33916688	-0.12142442	0.004742909
5.731745675080959e-08	-0.9776154	0.20998791	-0.013164357	0.35221374	-0.07565411	0.004742834
5.7571236208057936e-08	-0.9971113	0.07480467	-0.013164265	0.35923767	-0.02695051	0.004742801
5.7823472670321115e-08	-0.9980544	-0.06094499	-0.01316433	0.35957748	0.021957165	0.0047428245
5.8079494181848027e-08	-0.98020035	-0.19757016	-0.013164382	0.35314506	0.07118027	0.004742843
5.8333168911127776e-08	-0.94415075	-0.32925084	-0.013164286	0.34015715	0.118621975	0.0047428077
5.858777411490245e-08	-0.8902702	-0.45524243	-0.013164793	0.3207451	0.16401401	0.004742991
5.885123134897007e-08	-0.81693155	-0.5765845	-0.013164236	0.29432282	0.20773098	0.00474279
5.910892046374013e-08	-0.7293004	-0.6840671	-0.013163512	0.26275116	0.2464546	0.0047425292
5.9356093355548226e-08	-0.63204026	-0.7748239	-0.013163958	0.22771049	0.27915233	0.0047426894
5.962239978954486e-08	-0.51478225	-0.85722	-0.013164646	0.18546495	0.30883786	0.004742938
5.987667210838941e-08	-0.39291352	-0.9194813	-0.013164743	0.14155826	0.33126926	0.0047429726
6.014194366675185e-08	-0.25796515	-0.9660645	-0.013165029	0.09293927	0.3480522	0.004743076
6.039163991316807e-08	-0.12608512	-0.9919321	-0.013164721	0.045425743	0.3573717	0.004742965
6.064711591978528e-08	0.011183317	-0.9998508	-0.013164546	-0.0040291077	0.36022466	0.004742902
6.090332129705275e-08	0.1486279	-0.98880565	-0.013164555	-0.05354743	0.35624534	0.004742905
6.115828449470154e-08	0.2826056	-0.95914584	-0.013164908	-0.10181669	0.34555957	0.004743032
6.141824697159231e-08	0.41371554	-0.9103111	-0.013164895	-0.14905278	0.32796544	0.0047430275
6.167485794683114e-08	0.53520083	-0.84462225	-0.013164206	-0.19282132	0.30429918	0.00474278
6.193773318728111e-08	0.6490432	-0.7606378	-0.0131635405	-0.2338363	0.2740414	0.0047425395
6.2193514781179e-08	0.74735874	-0.66429037	-0.013164568	-0.2692572	0.23932949	0.004742909
6.24499712826563e-08	0.83171445	-0.5550477	-0.013164297	-0.29964876	0.1999717	0.0047428124
6.270441946237002e-08	0.8997519	-0.4362032	-0.013164683	-0.32416117	0.15715459	0.004742951
6.296643880102196e-08	0.9521659	-0.305298	-0.013164284	-0.34304485	0.10999228	0.0047428077
6.321536029614486e-08	0.98443246	-0.17527007	-0.0131643675	-0.3546698	0.063146025	0.0047428375
6.346582834669919e-08	0.9990616	-0.041263856	-0.013164256	-0.35994035	0.014866478	0.0047427975
6.371929246808406e-08	0.9953809	0.09509879	-0.013164276	-0.35861427	-0.034262042	0.004742805
6.397420557578183e-08	0.9729951	0.23045039	-0.013164213	-0.3505491	-0.083026305	0.0047427816
6.422629172892313e-08	0.93284255	0.36004373	-0.013164423	-0.33608305	-0.129716	0.004742858
6.447643733268025e-08	0.87601984	0.48209554	-0.013164436	-0.31561103	-0.17368862	0.0047428627
6.474151817948056e-08	0.7984978	0.6018537	-0.013165216	-0.28768152	-0.2168349	0.004743143
6.500613556667626e-08	0.70489866	0.709186	-0.013165114	-0.25395977	-0.25550443	0.0047431067
6.526272511488342e-08	0.60046667	0.7995415	-0.013164921	-0.21633518	-0.2880575	0.004743037
6.551192321798607e-08	0.48805827	0.8727118	-0.013164586	-0.17583686	-0.3144192	0.0047429167
6.576934023420642e-08	0.36274812	0.9317943	-0.013164536	-0.13069032	-0.3357054	0.004742899
6.602847206952769e-08	0.22958009	0.9732008	-0.013164306	-0.082712755	-0.35062325	0.0047428156
6.62696963057926e-08	0.10154344	0.994744	-0.013164527	-0.03658391	-0.35838482	0.0047428953
6.652951876689606e-08	-0.0382169	0.99918276	-0.013164475	0.013768725	-0.35998398	0.004742876
6.678621019696348e-08	-0.17556964	0.9843791	-0.013164347	0.063253954	-0.35465056	0.00474283
6.704267352309296e-08	-0.30945265	0.95082384	-0.013164294	0.11148911	-0.34256133	0.0047428114
6.729808278866653e-08	-0.43692967	0.89939934	-0.013164353	0.15741634	-0.32403418	0.004742833
6.755051464283193e-08	-0.5548142	0.8318702	-0.013164268	0.19988757	-0.29970485	0.0047428017
6.780254884124283e-08	-0.66229975	0.74912333	-0.013165265	0.23861232	-0.26989293	0.0047431607
6.806409624980796e-08	-0.7609342	0.64869565	-0.013165604	0.27414817	-0.23371105	0.0047432836
6.832295680590413e-08	-0.84371215	0.53663445	-0.013164673	0.3039713	-0.19333781	0.0047429474
6.857298738365543e-08	-0.9081302	0.41848096	-0.013164967	0.32717973	-0.15076967	0.0047430536
6.883588548325144e-08	-0.9581045	0.28611624	-0.013164419	0.3451844	-0.10308152	0.004742856
6.909199928967647e-08	-0.98834866	0.15163691	-0.013164547	0.35608065	-0.05463151	0.0047429027
6.9351397044014e-08	-0.9998352	0.012506906	-0.013164592	0.36021906	-0.0045059687	0.0047429185
6.960992513274452e-08	-0.9918918	-0.12640151	-0.0131644495	0.35735726	0.045539737	0.0047428673
6.986426249196769e-08	-0.9653345	-0.26068413	-0.013164654	0.34778917	0.093918875	0.004742941
7.011953488017361e-08	-0.92048967	-0.390545	-0.013164787	0.33163255	0.14070494	0.0047429884
7.037114719367568e-08	-0.8592778	-0.5113399	-0.01316441	0.30957925	0.18422474	0.0047428533
7.061927962970426e-08	-0.78347176	-0.6212879	-0.01316445	0.282268	0.2238366	0.0047428673
7.087794240680262e-08	-0.68959457	-0.72407615	-0.01316391	0.24844605	0.26086903	0.0047426727
7.113400623471495e-08	-0.5834929	-0.8120116	-0.013164204	0.21021989	0.29255027	0.004742779
7.138010147294171e-08	-0.4710466	-0.8820101	-0.013164865	0.16970792	0.31776917	0.0047430173
7.163445344346877e-08	-0.3461634	-0.938082	-0.013164491	0.1247152	0.3379707	0.004742882
7.188772378843939e-08	-0.21536432	-0.976445	-0.013164609	0.07759112	0.35179204	0.004742924
7.213324220163912e-08	-0.08472253	-0.9963176	-0.013164518	0.030523699	0.35895175	0.004742892
7.238739184253851e-08	0.052041408	-0.9985582	-0.013164403	-0.018749397	0.35975897	0.0047428505
7.264013878829184e-08	0.1870896	-0.9822546	-0.013164606	-0.067404345	0.3538851	0.004742923
7.289498495222552e-08	0.3197472	-0.9474115	-0.013164238	-0.11519802	0.34133193	0.004742791
7.31493524206133e-08	0.44615507	-0.89485896	-0.013164439	-0.16074005	0.32239836	0.0047428636
7.340170429258667e-08	0.56330556	-0.8261438	-0.013164559	-0.20294684	0.29764178	0.0047429064
7.365384665633543e-08	0.6699816	-0.742261	-0.013164821	-0.24137992	0.26742062	0.0047430005
7.390661477236558e-08	0.7645346	-0.6444483	-0.013164709	-0.27544528	0.2321808	0.0047429604
7.415776714801261e-08	0.8444699	-0.53544116	-0.013164626	-0.30424428	0.1929079	0.0047429306
7.44102450479855e-08	0.9092691	-0.4160006	-0.013164531	-0.32759002	0.14987603	0.004742896
7.467167636546818e-08	0.9586579	-0.28425628	-0.013164485	-0.34538376	0.102411404	0.0047428794
7.493793869480595e-08	0.9894444	-0.144314	-0.01316449	-0.35647547	0.05199322	0.004742882
7.518942237506817e-08	0.9998695	-0.00936648	-0.013164417	-0.36023143	0.0033745405	0.004742855
7.544458014756862e-08	0.99172354	0.12771505	-0.013164438	-0.35729662	-0.046012975	0.0047428627
7.569922621214654e-08	0.9649449	0.26212242	-0.013164373	-0.34764883	-0.09443705	0.0047428394
7.595462349220634e-08	0.9198812	0.39197636	-0.013163922	-0.33141336	-0.14122063	0.0047426773
7.621427951941474e-08	0.85625345	0.51638824	-0.013164484	-0.30848968	-0.18604355	0.0047428794
7.646935202305731e-08	0.7774573	0.628798	-0.013164452	-0.2801011	-0.22654235	0.0047428682
7.671136266451046e-08	0.6891213	0.72452646	-0.0131639885	-0.24827552	-0.26103127	0.0047427006
7.696519659679923e-08	0.58393836	0.8116913	-0.013164039	-0.21038038	-0.29243487	0.0047427192
7.72066120994138e-08	0.47375262	0.8805597	-0.013164601	-0.17068285	-0.31724665	0.0047429223
7.745826881826471e-08	0.35040492	0.93650585	-0.013164269	-0.12624332	-0.33740285	0.004742802