# t (s)	mx ()	my ()	mz ()	B_demagx (T)	B_demagy (T)	B_demagz (T)
0	0.6666667	0.6666667	0.33333334	-0.24018563	-0.24018563	-0.12009282
1.023e-12	0.6761161	0.6577326	0.3320465	-0.24359006	-0.23696685	-0.1196292
2.047e-12	0.6854181	0.6486899	0.33076188	-0.24694136	-0.23370898	-0.119166374
4.095e-12	0.70354986	0.6303176	0.32820317	-0.25347385	-0.22708982	-0.11824453
8.191e-12	0.73791623	0.59250987	0.3231281	-0.26585528	-0.21346852	-0.11641609
1.6383e-11	0.7990379	0.5133001	0.31314805	-0.28787607	-0.18493097	-0.11282049
3.2767e-11	0.8912603	0.34539035	0.29387155	-0.32110187	-0.12443668	-0.10587558
5.6164098793122204e-11	0.95825917	0.09977757	0.2679253	-0.34524012	-0.035947707	-0.09652771
8.113859492430389e-11	0.9587287	-0.14883341	0.24225642	-0.3454092	0.053621467	-0.08727977
1.0798966966797802e-10	0.8978399	-0.38318124	0.21692339	-0.32347238	0.13805194	-0.07815282
1.37101923872685e-10	0.7847813	-0.5892883	0.19198348	-0.28273976	0.21230786	-0.069167495
1.6891714169364858e-10	0.631739	-0.7568595	0.16754036	-0.22760195	0.27268016	-0.060361177
2.0396301191746743e-10	0.45272928	-0.8799867	0.14373523	-0.1631086	0.3170402	-0.051784698
2.4291350908841177e-10	0.2621054	-0.9574579	0.12072781	-0.09443092	0.3449514	-0.043495625
2.866299127728528e-10	0.07330289	-0.99241316	0.09870604	-0.02640945	0.35754508	-0.03556165
3.360715691424639e-10	-0.10170187	-0.9917564	0.077949084	0.03664099	0.35730842	-0.028083373
3.924462801141595e-10	-0.25384015	-0.96546024	0.05875275	0.091453135	0.3478345	-0.02116735
4.5694150828802516e-10	-0.37678427	-0.92537117	0.04149699	0.13574722	0.33339125	-0.01495047
5.306180558663469e-10	-0.46749786	-0.8835952	0.026556324	0.16842939	0.3183403	-0.0095676705
6.1389684939021e-10	-0.52582985	-0.85047054	0.014243667	0.18944515	0.3064062	-0.0051316856
7.063090559546892e-10	-0.5541946	-0.83237416	0.0046572383	0.19966435	0.29988647	-0.0016779024
8.066877305874617e-10	-0.55665725	-0.8307389	-0.0023972564	0.2005516	0.29929727	0.0008636798
9.150723870504907e-10	-0.5373753	-0.84331083	-0.007393473	0.19360472	0.3038267	0.0026637088
1.0314163479051488e-09	-0.4995038	-0.8662445	-0.010798896	0.17996044	0.3120892	0.0038906091
1.1581312840952336e-09	-0.44431457	-0.8957756	-0.013069647	0.16007695	0.32272863	0.004708712
1.2963505082271036e-09	-0.37264594	-0.92786	-0.014521208	0.13425629	0.33428794	0.005231678
1.4486342868822445e-09	-0.28426066	-0.95862323	-0.015411391	0.10241299	0.34537125	0.005552392
1.6248925344407428e-09	-0.1740059	-0.98461556	-0.015943883	0.06269057	0.35473573	0.0057442365
1.8274225105319111e-09	-0.041395105	-0.99901104	-0.016230099	0.014913762	0.3599221	0.005847355
2.1011299059969764e-09	0.14088243	-0.9898909	-0.016381366	-0.0507569	0.3566363	0.0059018526
2.363234020922626e-09	0.31202394	-0.9499323	-0.016429974	-0.11241549	0.3422401	0.0059193647
2.5923496981787257e-09	0.45414492	-0.89077604	-0.016445516	-0.16361862	0.32092738	0.0059249643
2.8192690972991383e-09	0.58437675	-0.8113157	-0.016451191	-0.21053833	0.29229957	0.0059270095
3.0408142737400216e-09	0.69844705	-0.7154726	-0.016454162	-0.2516354	0.25776935	0.0059280796
3.271186513911548e-09	0.80059195	-0.59898406	-0.016454818	-0.288436	0.21580103	0.005928316
3.4913904687911716e-09	0.88029313	-0.47414494	-0.016455246	-0.3171506	0.1708242	0.00592847
3.7248496042951183e-09	0.943666	-0.3304905	-0.016455991	-0.33998245	0.11906859	0.005928739
3.946586087843979e-09	0.9823279	-0.186444	-0.016455399	-0.35391155	0.06717175	0.0059285252
4.169570801359464e-09	0.9991645	-0.037411947	-0.01645547	-0.35997742	0.013478718	0.005928551
4.394775183794781e-09	0.9933506	0.11394702	-0.016455607	-0.3578828	-0.041052647	0.0059286
4.618924125846101e-09	0.9649259	0.2620065	-0.016455818	-0.34764197	-0.09439528	0.0059286766
4.8447919484518376e-09	0.9140937	0.40516916	-0.016455846	-0.32932824	-0.14597371	0.005928686
5.072664292498161e-09	0.84143144	0.54011333	-0.016455665	-0.30314958	-0.1945912	0.0059286207
5.2976098624778436e-09	0.7503028	0.6608896	-0.016455723	-0.2703179	-0.23810427	0.005928642
5.529643930215165e-09	0.63832873	0.76958805	-0.016455764	-0.22997609	-0.27726597	0.005928657
5.750219384963529e-09	0.5174238	0.8555711	-0.01645491	-0.18641663	-0.3082438	0.0059283497
5.968968847643356e-09	0.38626254	0.92224216	-0.016455425	-0.13916206	-0.33226395	0.0059285345
6.189627135042472e-09	0.24548884	0.9692598	-0.016455432	-0.08844434	-0.3492034	0.005928537
6.41266953394703e-09	0.097707905	0.99507916	-0.016455613	-0.03520205	-0.35850555	0.005928602
6.638155774022905e-09	-0.053916156	0.9984099	-0.01645556	0.019424826	-0.35970557	0.0059285834
6.862110998308608e-09	-0.20329049	0.97898024	-0.016455494	0.073241174	-0.35270548	0.005928559
7.086931681444236e-09	-0.34859568	0.9371288	-0.016455231	0.1255915	-0.33762723	0.005928465
7.310234480078399e-09	-0.4850341	0.8743404	-0.01645582	0.17474732	-0.315006	0.0059286766
7.529196482573917e-09	-0.6082134	0.793603	-0.016454881	0.21912616	-0.28591803	0.005928339
7.750930732914768e-09	-0.7194895	0.6943084	-0.016455129	0.25921655	-0.25014433	0.005928428
7.974716073480392e-09	-0.81555825	0.5784411	-0.016454963	0.29382804	-0.20839983	0.0059283683
8.190080090630821e-09	-0.89058316	0.45452285	-0.016454978	0.32085794	-0.16375476	0.005928374
8.414191561869829e-09	-0.94878876	0.3154825	-0.016455501	0.3418281	-0.11366154	0.005928562
8.630452268409313e-09	-0.9845242	0.1744749	-0.016455375	0.3547028	-0.06285955	0.0059285164
8.855100422193422e-09	-0.9995734	0.024129288	-0.016455475	0.3601247	-0.008693261	0.0059285527
9.082861249659935e-09	-0.9915281	-0.12884592	-0.016455576	0.3572262	0.046420403	0.005928589
9.30674261237401e-09	-0.9609339	-0.2762884	-0.016455619	0.34620374	0.09954074	0.005928604
9.530576974819383e-09	-0.90855724	-0.41743624	-0.016455457	0.32733357	0.15039325	0.0059285457
9.75509107240608e-09	-0.8353306	-0.5495016	-0.016455853	0.3009516	0.19797358	0.0059286887
9.978926745492134e-09	-0.7433546	-0.6686951	-0.016455641	0.26781464	0.2409164	0.0059286123
1.0205583823411721e-08	-0.6330569	-0.7739305	-0.01645551	0.22807676	0.27883047	0.0059285657
1.0430073113906221e-08	-0.50929993	-0.86043185	-0.01645574	0.18348977	0.30999503	0.005928648
1.0651691296106614e-08	-0.3757204	-0.926587	-0.016455282	0.13536394	0.33382928	0.005928483
1.0880831754825863e-08	-0.22886415	-0.9733193	-0.016455611	0.082454816	0.35066593	0.0059286016
1.1105675593280141e-08	-0.07945372	-0.99670273	-0.016455542	0.028625462	0.35909045	0.005928577
1.1331142823444533e-08	0.07219263	-0.99725497	-0.016455507	-0.026009448	0.35928947	0.005928564
1.1555026439959704e-08	0.22113828	-0.9751036	-0.016455371	-0.07967135	0.35130876	0.0059285155
1.1780324116811416e-08	0.36595482	-0.93048716	-0.016455607	-0.13184562	0.3352344	0.0059286
1.200732463101965e-08	0.5033562	-0.8639223	-0.016455637	-0.18134838	0.31125256	0.005928611
1.2228680285407218e-08	0.6260632	-0.7795987	-0.016455654	-0.22555707	0.28087258	0.0059286165
1.2452708247933138e-08	0.73610777	-0.67666423	-0.016456077	-0.26520374	0.24378753	0.005928769
1.2677607129441482e-08	0.8297628	-0.55787355	-0.016455416	-0.29894567	0.20098981	0.0059285313
1.290590321532149e-08	0.90539587	-0.42424962	-0.016455434	-0.32619458	0.15284798	0.005928538
1.3122190875468283e-08	0.95737773	-0.28836975	-0.0164552	-0.34492254	0.10389339	0.005928453
1.3344173941764246e-08	0.98964477	-0.14259209	-0.016455395	-0.35654765	0.051372856	0.005928524
1.3565507030514217e-08	0.9998471	0.005929486	-0.0164555	-0.36022335	-0.0021362659	0.005928561
1.379126361492672e-08	0.98742	0.15726124	-0.016455535	-0.35574615	-0.05665783	0.005928574
1.4015004316101717e-08	0.95263374	0.30367446	-0.016455568	-0.34321338	-0.10940735	0.0059285862
1.424084327514791e-08	0.8956418	0.4444716	-0.016455103	-0.3226804	-0.16013353	0.0059284186
1.446265289552763e-08	0.81953746	0.5727893	-0.01645532	-0.29526168	-0.20636363	0.0059284973
1.4683308080010142e-08	0.7257208	0.6877925	-0.016455574	-0.26146156	-0.24779679	0.005928588
1.4907480129633492e-08	0.6140458	0.78909886	-0.016455928	-0.22122744	-0.2842953	0.0059287157
1.5135381298278293e-08	0.4862135	0.8736851	-0.016456151	-0.17517221	-0.31476986	0.0059287967
1.5362209690120354e-08	0.34763172	0.93748677	-0.016456202	-0.1252442	-0.33775628	0.005928815
1.5583326877923944e-08	0.20471984	0.97868234	-0.016455479	-0.07375614	-0.35259813	0.0059285536
1.5805255275374686e-08	0.056736615	0.99825364	-0.016455524	-0.02044098	-0.35964924	0.00592857
1.603095907764904e-08	-0.095041424	0.99533737	-0.016455531	0.034241375	-0.35859856	0.005928573
1.625536190194885e-08	-0.243779	0.9696912	-0.016455516	0.087828316	-0.34935886	0.0059285676
1.6478017069349402e-08	-0.38587737	0.92240334	-0.016455468	0.1390233	-0.332322	0.00592855
1.6706760769350012e-08	-0.5228165	0.85228646	-0.016455589	0.1883595	-0.30706042	0.0059285937
1.6930218317482543e-08	-0.64466107	0.76429147	-0.016455052	0.23225749	-0.27535772	0.0059284
1.7153070044942947e-08	-0.75166905	0.65933526	-0.016454797	0.27081013	-0.23754427	0.0059283087
1.7371063876244643e-08	-0.8400141	0.5423151	-0.01645439	0.30263895	-0.19538444	0.0059281616
1.7595609286698744e-08	-0.9121106	0.4096139	-0.016454926	0.32861376	-0.14757505	0.0059283543
1.781461220827116e-08	-0.9623944	0.27115715	-0.016455544	0.34672993	-0.09769207	0.0059285774
1.804613950241832e-08	-0.9928243	0.11844473	-0.016455479	0.3576932	-0.042673085	0.0059285536
1.8269279447875053e-08	-0.9993684	-0.031497266	-0.016455498	0.36005086	0.011347786	0.0059285606
1.8493255384865756e-08	-0.9832933	-0.1812833	-0.016455622	0.35425937	0.06531246	0.005928606
1.871774181803856e-08	-0.9447844	-0.3272794	-0.016455753	0.34038544	0.1179117	0.0059286524
1.8941998798022027e-08	-0.8848024	-0.46567598	-0.01645571	0.3187752	0.16777301	0.005928637
1.916524103278475e-08	-0.8050896	-0.5929251	-0.016455606	0.2900564	0.21361811	0.0059286
1.9387209870259842e-08	-0.7078273	-0.7061938	-0.016455041	0.2550149	0.25442642	0.0059283962
1.9604837023080745e-08	-0.5971313	-0.8019747	-0.016455881	0.21513355	0.28893423	0.005928699
1.98252354771466e-08	-0.47198844	-0.8814513	-0.016455932	0.17004725	0.31756788	0.0059287166
2.004372033738825e-08	-0.33768383	-0.9411158	-0.016455445	0.12166019	0.3390637	0.0059285415
2.026909085723593e-08	-0.19153686	-0.9813475	-0.016455662	0.0690066	0.3535583	0.0059286198
2.0494407862017687e-08	-0.041024134	-0.99902266	-0.016455581	0.01478011	0.35992628	0.005928591
2.0718481795567505e-08	0.109599	-0.9938397	-0.016455546	-0.039486155	0.35805902	0.005928578
2.0942685806239344e-08	0.2578169	-0.96605366	-0.016455587	-0.09288587	0.3480483	0.0059285928
2.116780274714757e-08	0.40073377	-0.9160468	-0.016456097	-0.14437574	0.33003187	0.0059287767
2.139163058387362e-08	0.5337291	-0.84549546	-0.01645581	-0.19229108	0.30461377	0.005928674
2.161728763975019e-08	0.65555364	-0.7549694	-0.016455846	-0.23618184	0.27199918	0.005928686
2.183995638892334e-08	0.76096857	-0.6485801	-0.016455717	-0.27416056	0.2336694	0.0059286403
2.206186813697409e-08	0.8490411	-0.52807057	-0.01645543	-0.30589122	0.19025244	0.005928536
2.228484578275996e-08	0.9184751	-0.39513633	-0.016455395	-0.33090678	0.1423591	0.005928524
2.2511849726681803e-08	0.9679275	-0.2506903	-0.016455105	-0.3487234	0.09031831	0.005928419
2.273749132759963e-08	0.9947186	-0.10131283	-0.016455252	-0.35837567	0.036500826	0.0059284726
2.2959684544586093e-08	0.99870795	0.04808159	-0.016455414	-0.35981295	-0.01732276	0.0059285304
2.3183849483649516e-08	0.9801235	0.1977046	-0.016455753	-0.35311735	-0.071228705	0.0059286524
2.3408174833544417e-08	0.9392149	0.34293526	-0.016455593	-0.33837885	-0.12355217	0.0059285946
2.363316891683735e-08	0.8767033	0.48075017	-0.016455393	-0.3158573	-0.17320392	0.0059285234
2.3857850843973318e-08	0.7942376	0.60738444	-0.016455183	-0.2861467	-0.2188275	0.0059284475
2.408144922289018e-08	0.69415593	0.71963656	-0.016455166	-0.2500894	-0.25926954	0.005928442
2.4308590386476425e-08	0.5764202	0.81698775	-0.016456	-0.20767176	-0.29434308	0.005928742
2.4533023634531108e-08	0.44685817	0.8944535	-0.016455295	-0.16099335	-0.32225233	0.0059284875
2.4756209003716414e-08	0.30791318	0.9512722	-0.016455205	-0.110934466	-0.34272283	0.005928456
2.4973309532471616e-08	0.16606876	0.9859769	-0.016455358	-0.059830986	-0.3552262	0.00592851
2.51970093733898e-08	0.01623981	0.99973273	-0.016455384	-0.005850854	-0.3601821	0.0059285196
2.5419835088350495e-08	-0.13337429	0.9909292	-0.016455326	0.04805188	-0.3570104	0.0059284987
2.5643658007714308e-08	-0.28063667	0.95967305	-0.016455565	0.10110733	-0.34574953	0.0059285844
2.58673113525517e-08	-0.42143455	0.90670955	-0.016455615	0.15183377	-0.3266679	0.005928603
2.608875468929761e-08	-0.55145144	0.83404475	-0.016454833	0.19867605	-0.30048835	0.005928321
2.6316433763898498e-08	-0.6723427	0.7400571	-0.016455231	0.24223056	-0.2666266	0.005928465
2.6538047853528884e-08	-0.7748906	0.63188124	-0.016454818	0.27917635	-0.22765318	0.005928316
2.6765482517942932e-08	-0.86220807	0.5062871	-0.016455442	0.31063497	-0.18240432	0.0059285406
2.699398740600698e-08	-0.9296126	0.36817095	-0.01645542	0.33491933	-0.13264406	0.005928532
2.7216207944355365e-08	-0.97410876	0.22548021	-0.016455421	0.35095036	-0.08123566	0.005928533
2.7442427449952278e-08	-0.99704283	0.07506668	-0.016455585	0.359213	-0.027044907	0.0059285923
2.766850506554481e-08	-0.996896	-0.07699056	-0.01645554	0.35916013	0.027738038	0.005928576
2.789253803682664e-08	-0.9740053	-0.2259269	-0.016455676	0.35091308	0.081396595	0.0059286254
2.811897454274498e-08	-0.92839295	-0.37123552	-0.01645603	0.33447996	0.13374814	0.005928753
2.8342716347961284e-08	-0.86216044	-0.5063682	-0.016455287	0.3106178	0.18243355	0.0059284847
2.856928025687783e-08	-0.775202	-0.6314991	-0.016454704	0.27928853	0.22751549	0.005928275
2.8791138106574503e-08	-0.6725873	-0.7398348	-0.016455524	0.24231866	0.26654652	0.00592857
2.901521764987013e-08	-0.5537426	-0.8325253	-0.01645592	0.1995015	0.29994094	0.0059287134
2.924141872865325e-08	-0.42102	-0.9069022	-0.0164559	0.15168443	0.32673728	0.0059287054
2.9460372110212215e-08	-0.28323182	-0.95891035	-0.016455812	0.1020423	0.34547472	0.005928674
2.9685891038841354e-08	-0.13492164	-0.9907197	-0.016455559	0.048609357	0.3569349	0.005928583
2.990835965436924e-08	0.014439663	-0.9997604	-0.016455544	-0.005202299	0.36019212	0.0059285774
3.0133198376790556e-08	0.16505122	-0.98614776	-0.016455607	-0.059464395	0.3552878	0.0059286
3.035709843932042e-08	0.31128743	-0.9501733	-0.016455617	-0.11215015	0.34232694	0.0059286035
3.0583654437552365e-08	0.45205727	-0.8918371	-0.016455501	-0.16286649	0.3213097	0.005928562
3.0809836756409425e-08	0.58212155	-0.81293535	-0.016455336	-0.20972583	0.29288307	0.0059285024
3.103160441907819e-08	0.6965826	-0.71728796	-0.016455486	-0.2509637	0.2584234	0.005928557
3.125877392464976e-08	0.79773825	-0.6027794	-0.016455473	-0.28740788	0.21716842	0.005928552
3.148677526160852e-08	0.88053066	-0.4737035	-0.016455393	-0.3172362	0.17066514	0.0059285234
3.171033994924664e-08	0.9416118	-0.33629817	-0.016455716	-0.33924243	0.121160984	0.0059286393
3.1939231891644495e-08	0.9820762	-0.18776459	-0.016455522	-0.3538209	0.06764753	0.0059285695
3.216208836841953e-08	0.9991099	-0.038841102	-0.016455567	-0.35995775	0.013993611	0.0059285853
3.23849481531702e-08	0.99368894	0.11095804	-0.016455576	-0.3580047	-0.039975785	0.005928589
3.260895950717111e-08	0.96573377	0.25901294	-0.01645584	-0.34793305	-0.09331677	0.005928684
3.2832888693812136e-08	0.9158698	0.40113834	-0.016455881	-0.32996812	-0.14452149	0.005928699
3.3059280633858447e-08	0.84433746	0.535559	-0.016455373	-0.3041966	-0.19295035	0.005928516
3.327906792815211e-08	0.7561402	0.65420276	-0.016455853	-0.272421	-0.23569514	0.0059286887
3.350227272912477e-08	0.64966553	0.7600422	-0.016455675	-0.23406047	-0.2738268	0.0059286244
3.373273649339579e-08	0.524389	0.85131985	-0.016455892	-0.18892606	-0.30671218	0.0059287027
3.3956978866468916e-08	0.39036715	0.92051226	-0.016456274	-0.14064085	-0.33164066	0.0059288405
3.418010752144412e-08	0.24818718	0.9685724	-0.016455946	-0.08941649	-0.34895575	0.0059287227
3.440944988912064e-08	0.09625584	0.9952206	-0.016455702	-0.034678902	-0.3585565	0.0059286347
3.4631106461132686e-08	-0.052798897	0.9984696	-0.016455572	0.019022305	-0.35972703	0.005928587
3.485445972688823e-08	-0.20179813	0.9792889	-0.01645581	0.07270351	-0.3528167	0.005928674
3.50782874494078e-08	-0.3465423	0.9378901	-0.016455354	0.12485172	-0.33790153	0.005928509
3.530253921342766e-08	-0.4836764	0.8750923	-0.016455363	0.17425817	-0.31527686	0.0059285117
3.552333592366246e-08	-0.60796154	0.79379606	-0.016455695	0.21903542	-0.28598762	0.0059286314
3.5744745845060236e-08	-0.7191212	0.69468975	-0.016455855	0.25908387	-0.25028172	0.0059286896
3.596557667604945e-08	-0.81410223	0.5804885	-0.016456017	0.2933035	-0.20913748	0.0059287483
3.618727324796143e-08	-0.8913821	0.45295408	-0.01645596	0.3211457	-0.16318959	0.0059287273
3.641383221562353e-08	-0.94986033	0.31224146	-0.016455615	0.34221417	-0.11249386	0.005928603
3.663120439145233e-08	-0.9852423	0.17037284	-0.016455632	0.35496154	-0.06138166	0.005928609
3.685498757941684e-08	-0.99965346	0.020547155	-0.016455542	0.36015353	-0.0074026966	0.005928577
3.707972556131648e-08	-0.9913274	-0.13038109	-0.016455501	0.35715386	0.04697349	0.005928562
3.730362263211642e-08	-0.96050227	-0.2777852	-0.016455378	0.3460482	0.10008001	0.0059285183
3.752792589216444e-08	-0.90777445	-0.41913602	-0.016455613	0.32705155	0.15100566	0.005928602
3.774883600569746e-08	-0.8356342	-0.54903984	-0.016455805	0.30106097	0.19780722	0.005928672
3.797441529635199e-08	-0.7429396	-0.66915613	-0.016455492	0.2676651	0.24108253	0.0059285583
3.8197644806816426e-08	-0.6343614	-0.7728616	-0.016455865	0.22854674	0.27844536	0.005928693
3.842212033856581e-08	-0.5107567	-0.8595679	-0.016455637	0.18401459	0.30968374	0.005928611
3.864275790588666e-08	-0.37790006	-0.92570025	-0.016455587	0.13614924	0.33350986	0.0059285928
3.886394972055814e-08	-0.23635694	-0.97152704	-0.016455429	0.08515431	0.35002026	0.005928536
3.908456742177265e-08	-0.08996675	-0.99580884	-0.01645544	0.03241308	0.3587684	0.00592854
3.930704008758279e-08	0.05965234	-0.9980836	-0.016455445	-0.02149145	0.359588	0.0059285415
3.953183157614875e-08	0.20946191	-0.9776784	-0.016455388	-0.07546461	0.35223645	0.005928521
3.975571786404238e-08	0.35391197	-0.93513405	-0.016455371	-0.12750685	0.33690864	0.0059285155
3.9982512106359245e-08	0.49204084	-0.8704167	-0.016455757	-0.1772717	0.31359234	0.0059286533
4.020873915257491e-08	0.6184184	-0.78567684	-0.016455987	-0.2228028	0.2830624	0.005928737
4.0429555281019935e-08	0.72798264	-0.68539804	-0.016455553	-0.2622764	0.24693413	0.0059285806
4.065468232076228e-08	0.8231337	-0.56760925	-0.016455771	-0.2965573	0.20449738	0.005928659
4.0878028164746015e-08	0.8988829	-0.43787998	-0.016455378	-0.32384813	0.15775871	0.0059285183
4.111047911283351e-08	0.9561512	-0.29241118	-0.016455855	-0.34448063	0.10534944	0.0059286896
4.1334574093933144e-08	0.9892419	-0.14536093	-0.016455699	-0.35640252	0.052370407	0.0059286333
4.155828786304163e-08	0.9998534	0.0047354773	-0.016455574	-0.36022562	-0.0017060904	0.005928588
4.178202605757841e-08	0.9878181	0.15474053	-0.016455568	-0.3558896	-0.055749673	0.0059285862
4.20065152405566e-08	0.95325404	0.3017219	-0.016455408	-0.34343687	-0.10870388	0.0059285285
4.223015442520667e-08	0.89720416	0.44130957	-0.016455587	-0.32324332	-0.15899432	0.0059285928
4.245816995653928e-08	0.8191628	0.57332516	-0.016455611	-0.29512668	-0.20655668	0.0059286016
4.267831855613165e-08	0.7255041	0.68802106	-0.016455883	-0.26138347	-0.24787915	0.0059287
4.290305178460098e-08	0.613498	0.78952485	-0.016455624	-0.22103006	-0.2844488	0.0059286067
4.312713628735585e-08	0.48785535	0.8727695	-0.016455261	-0.17576376	-0.31444	0.0059284754
4.334693586004762e-08	0.3538262	0.9351664	-0.016455464	-0.12747595	-0.33692026	0.005928549
4.3568750844158254e-08	0.2107345	0.9774049	-0.01645546	-0.0759231	-0.3521379	0.0059285476
4.3793302222704004e-08	0.06111296	0.9979953	-0.0164554	-0.02201768	-0.35955614	0.0059285257
4.4017858338923305e-08	-0.089906126	0.9958144	-0.016455507	0.03239124	-0.35877046	0.005928564
4.424176468233161e-08	-0.23844928	0.9710155	-0.016455404	0.08590813	-0.34983593	0.005928527
4.4465970481998844e-08	-0.38177022	0.9241109	-0.016455544	0.13754357	-0.33293718	0.0059285774
4.469055857837639e-08	-0.5166273	0.85605234	-0.016455749	0.18612966	-0.3084172	0.0059286514
4.4909536472177094e-08	-0.6367855	0.7708655	-0.016455412	0.22942008	-0.27772623	0.0059285304
4.513453042095881e-08	-0.74582803	0.66593534	-0.016455889	0.26870576	-0.23992214	0.0059287017
4.5357417545403626e-08	-0.8370121	0.546937	-0.016455607	0.30155742	-0.19704959	0.0059286
4.558131451497317e-08	-0.90966094	0.4150258	-0.01645531	0.32773125	-0.14952485	0.005928493
4.580425452702718e-08	-0.96149737	0.27432135	-0.016454993	0.34640676	-0.09883206	0.0059283786
4.6025531050460344e-08	-0.9915652	0.12855978	-0.016455267	0.35723954	-0.046317324	0.0059284773
4.6251217694772516e-08	-0.9995996	-0.023020754	-0.01645542	0.36013415	0.008293881	0.005928532
4.647589149902563e-08	-0.9847141	-0.17339957	-0.016455434	0.35477126	0.062472127	0.005928538
4.669949901283181e-08	-0.9475655	-0.3191378	-0.01645554	0.3413874	0.11497846	0.005928576
4.692349286463296e-08	-0.88885796	-0.4578875	-0.01645572	0.32023636	0.16496699	0.0059286407
4.714863142756265e-08	-0.80951816	-0.58686423	-0.01645486	0.29165193	0.21143453	0.0059283315
4.737504759866873e-08	-0.71100956	-0.7029898	-0.016455052	0.2561614	0.25327206	0.0059284
4.7599894986243813e-08	-0.5968546	-0.8021807	-0.016455503	0.21503384	0.28900838	0.005928562
4.7824724170590964e-08	-0.46905497	-0.88301575	-0.016455734	0.16899037	0.31813154	0.005928646
4.805836130128996e-08	-0.32492435	-0.9455968	-0.016455349	0.11706323	0.34067816	0.005928507
4.828044148348235e-08	-0.18042764	-0.9834507	-0.016455526	0.065004185	0.35431606	0.0059285704
4.850834484920808e-08	-0.027984677	-0.9994729	-0.016455544	0.010082276	0.36008856	0.0059285774
4.8732594424836025e-08	0.12267481	-0.9923105	-0.016455336	-0.044197086	0.35750806	0.0059285024
4.89563258319491e-08	0.27020636	-0.9626618	-0.016455714	-0.097349524	0.34682631	0.0059286384
4.917910855871561e-08	0.41103584	-0.9114708	-0.016455028	-0.14808732	0.32838327	0.0059283916
4.940258675681025e-08	0.5430257	-0.83955497	-0.0164557	-0.19564041	0.30247355	0.0059286337
4.963041092765636e-08	0.66493344	-0.7467214	-0.016455265	-0.23956119	0.2690276	0.005928477
4.9860978211805504e-08	0.7723972	-0.6349267	-0.016455216	-0.27827805	0.22875038	0.0059284596
5.00852795320133e-08	0.8591319	-0.51148975	-0.016455587	-0.30952668	0.18427873	0.0059285928
5.030517342533424e-08	0.92518747	-0.37915358	-0.016455505	-0.3333251	0.13660085	0.005928564
5.052623259506392e-08	0.97118515	-0.2377578	-0.016455667	-0.34989703	0.08565901	0.005928622
5.074898501400942e-08	0.9958086	-0.089970045	-0.016455473	-0.3587683	0.032414265	0.005928552
5.097448253958756e-08	0.99796027	0.06168208	-0.016455512	-0.35954356	-0.02222272	0.0059285657
5.1198774641913194e-08	0.97732127	0.211122	-0.016455406	-0.35210776	-0.0760627	0.0059285276
5.142363534135291e-08	0.9342985	0.3561119	-0.016455295	-0.33660755	-0.12829944	0.0059284875
5.1646256355891236e-08	0.8706431	0.49164006	-0.016455011	-0.3136739	-0.17712732	0.0059283855
5.1862226774646356e-08	0.79021335	0.612611	-0.016455563	-0.28469685	-0.22071052	0.0059285844
5.208640679178805e-08	0.6891058	0.7244739	-0.016455593	-0.24826995	-0.26101232	0.0059285946
5.2314946528412595e-08	0.56992006	0.8215354	-0.016455676	-0.2053299	-0.29598147	0.0059286254
5.253628095797973e-08	0.44162318	0.8970498	-0.016455283	-0.1591073	-0.32318768	0.005928484
5.275528298053601e-08	0.30503383	0.95219946	-0.016454903	-0.109897114	-0.34305692	0.005928346
5.297328222338405e-08	0.16248894	0.98657316	-0.0164555	-0.058541253	-0.35544103	0.005928561
5.319931463404109e-08	0.011039698	0.9998037	-0.01645547	-0.003977365	-0.36020774	0.005928551
5.3422653653166084e-08	-0.1388697	0.990174	-0.016455501	0.050031755	-0.35673833	0.005928562
5.3647004886481315e-08	-0.28629765	0.9579994	-0.016455527	0.103146866	-0.34514654	0.005928572
5.386929313379185e-08	-0.42594784	0.9045982	-0.016455391	0.15345982	-0.32590717	0.005928523
5.408933813927194e-08	-0.55481726	0.8318095	-0.016454952	0.1998887	-0.29968303	0.0059283646
5.430923248020631e-08	-0.6714522	0.7408651	-0.016454622	0.24190974	-0.2669177	0.0059282454
5.4533764131257345e-08	-0.7753689	0.6312942	-0.016455065	0.27934867	-0.22744167	0.0059284056
5.4758327884456644e-08	-0.86161226	0.50730044	-0.016455168	0.31042033	-0.1827694	0.005928442
5.498450991422725e-08	-0.9285994	0.37071875	-0.016454961	0.3345543	-0.13356197	0.0059283674
5.520637467984415e-08	-0.97343177	0.2283855	-0.01645544	0.35070646	-0.082282364	0.00592854
5.543705308131721e-08	-0.9970442	0.07504778	-0.016455546	0.35921353	-0.027038097	0.005928578
5.566152926557129e-08	-0.99697703	-0.07593422	-0.016455514	0.35918933	0.027357459	0.0059285667
5.588573935018556e-08	-0.9742175	-0.22501047	-0.016455624	0.35098952	0.081066415	0.0059286067
5.6110283448505625e-08	-0.9292136	-0.3691768	-0.016455265	0.33477557	0.13300644	0.005928477
5.633348130116207e-08	-0.86346674	-0.5041373	-0.01645549	0.31108844	0.18162979	0.0059285583
5.655839314020404e-08	-0.77752936	-0.6286315	-0.016455151	0.28012705	0.22648236	0.0059284354
5.6777559689973315e-08	-0.6766498	-0.73612106	-0.016455254	0.24378233	0.26520854	0.0059284735
5.7000569349458894e-08	-0.5589179	-0.8290597	-0.0164549	0.20136605	0.29869235	0.005928345
5.722215420124999e-08	-0.4294745	-0.90292907	-0.016455203	0.1547304	0.32530588	0.005928454
5.7451256033707985e-08	-0.28564128	-0.9581953	-0.016455522	0.10291039	0.3452171	0.0059285695
5.76744578114648e-08	-0.138958	-0.99016154	-0.01645545	0.050063573	0.35673383	0.0059285434
5.7900432947485127e-08	0.0127252005	-0.9997837	-0.016455514	-0.004584615	0.3602005	0.0059285667
5.8124718725964214e-08	0.16299246	-0.98649013	-0.016455567	-0.058722667	0.35541108	0.0059285853
5.834873695462382e-08	0.309379	-0.9507965	-0.016455729	-0.11146258	0.34255147	0.005928644
5.857532197912692e-08	0.45028442	-0.8927336	-0.01645587	-0.16222775	0.32163262	0.0059286943
5.880581111647244e-08	0.5828667	-0.8124012	-0.016455906	-0.20999432	0.2926906	0.005928708
5.902514400092427e-08	0.6960646	-0.7177906	-0.016454747	-0.25077707	0.25860447	0.00592829
5.9242146556517047e-08	0.7931515	-0.6088021	-0.016455371	-0.28575537	0.21933824	0.0059285155
5.945713382922311e-08	0.8726755	-0.4880234	-0.016454995	-0.31440616	0.17582428	0.0059283795
5.967730815984399e-08	0.9351865	-0.35377333	-0.01645548	-0.33692753	0.1274569	0.005928555
5.9899733054966e-08	0.977503	-0.21027894	-0.016455164	-0.3521732	0.075758964	0.005928441
6.012420975469869e-08	0.99802047	-0.06069973	-0.016455287	-0.3595652	0.021868804	0.0059284847
6.035092071677242e-08	0.995645	0.09176256	-0.016455414	-0.35870942	-0.033060066	0.0059285304
6.057553414967713e-08	0.97045475	0.24072179	-0.016455773	-0.34963393	-0.086726874	0.00592866
6.080104014621397e-08	0.92287797	0.38474098	-0.016455293	-0.33249304	-0.13861388	0.0059284866
6.102048479381847e-08	0.8561803	0.51641506	-0.016455607	-0.30846328	-0.1860532	0.0059286
6.123875569235706e-08	0.77132624	0.63622725	-0.016455809	-0.27789217	-0.22921896	0.005928673
6.146045455476489e-08	0.66812384	0.7438681	-0.016456056	-0.24071062	-0.26799965	0.005928762
6.168229135749922e-08	0.5499844	0.8350128	-0.016455205	-0.19814752	-0.3008371	0.005928456
6.190459519971214e-08	0.41931507	0.90769166	-0.016455647	-0.15107018	-0.32702172	0.0059286146
6.212392458402494e-08	0.28118882	0.9595114	-0.01645549	-0.10130626	-0.34569126	0.0059285583
6.234783450550561e-08	0.1338869	0.99086	-0.016455445	-0.048236556	-0.35698545	0.0059285415
6.257015720714953e-08	-0.015384724	0.99974626	-0.016455498	0.005542784	-0.360187	0.0059285606
6.279318553490832e-08	-0.16478081	0.98619294	-0.016455354	0.059366968	-0.35530403	0.005928509
6.301656337566677e-08	-0.3106912	0.9503685	-0.016455326	0.11193534	-0.34239727	0.0059284987
6.324033593397233e-08	-0.44982332	0.89296603	-0.016455563	0.16206163	-0.3217164	0.0059285844
6.346566549215563e-08	-0.57961875	0.8147217	-0.016455887	0.20882413	-0.29352665	0.005928701
6.368900575924366e-08	-0.69513595	0.71869004	-0.016455175	0.2504425	-0.25892854	0.0059284447
6.391564481638119e-08	-0.7963057	0.6046707	-0.016455656	0.2868918	-0.21784982	0.005928618
6.414146944658432e-08	-0.8787074	0.47707707	-0.016455408	0.31657934	-0.17188057	0.0059285285
6.436876674169703e-08	-0.94116586	0.33754447	-0.016455203	0.33908176	-0.12160999	0.005928454
6.459175387589717e-08	-0.9810667	0.19297016	-0.016455254	0.35345715	-0.06952298	0.0059284735
6.481501656861952e-08	-0.99890184	0.043867663	-0.016455352	0.3598828	-0.01580457	0.0059285085
6.503842900450396e-08	-0.9941952	-0.10632542	-0.016455486	0.35818708	0.038306754	0.005928557
6.526238007333392e-08	-0.9669411	-0.25446823	-0.016455436	0.34836802	0.09167941	0.0059285387
6.548553378979277e-08	-0.91795474	-0.39634374	-0.016455665	0.3307193	0.1427941	0.0059286207
6.571086144563128e-08	-0.84750766	-0.5305282	-0.016454993	0.3053387	0.19113787	0.0059283786
6.593385515519236e-08	-0.7586167	-0.65132934	-0.016455373	0.27331322	0.23465991	0.005928516
6.61546755988528e-08	-0.65376073	-0.7565225	-0.016455736	0.23553589	0.27255872	0.005928647
6.637426990262007e-08	-0.535175	-0.844581	-0.016455831	0.19281203	0.30428427	0.005928681
6.659547203102921e-08	-0.40391922	-0.91464674	-0.016455721	0.1455234	0.3295275	0.005928641
6.681641848636599e-08	-0.26388565	-0.9644136	-0.016455734	0.09507231	0.3474574	0.005928646
6.70414480146961e-08	-0.115293115	-0.9931953	-0.016455563	0.04153762	0.35782683	0.0059285844
6.726570172971416e-08	0.035418607	-0.99923706	-0.016455537	-0.01276056	0.36000353	0.005928575
6.748951436873044e-08	0.18503207	-0.9825948	-0.016455386	-0.066663064	0.35400772	0.00592852
6.771209261382295e-08	0.32966676	-0.94395405	-0.016455453	-0.11877182	0.34008628	0.0059285443
6.794109392083009e-08	0.4707299	-0.882124	-0.016455548	-0.16959383	0.31781024	0.005928579
6.816670221839724e-08	0.59879553	-0.800733	-0.01645538	-0.2157331	0.2884868	0.0059285183