# t (s)	mx ()	my ()	mz ()	B_demagx (T)	B_demagy (T)	B_demagz (T)
0	0.6666667	0.6666667	0.33333334	-0.24018563	-0.24018563	-0.12009282
1.023e-12	0.6761103	0.65772027	0.33208284	-0.24358797	-0.23696242	-0.11964228
2.047e-12	0.68540704	0.6486646	0.33083448	-0.24693736	-0.23369984	-0.11919252
4.095e-12	0.7035304	0.6302638	0.32834822	-0.2534668	-0.22707045	-0.11829677
8.191e-12	0.73788726	0.59238815	0.32341716	-0.26584485	-0.21342468	-0.116520226
1.6383e-11	0.7990105	0.5129923	0.3137217	-0.28786623	-0.18482006	-0.113027155
3.2767e-11	0.8912428	0.34447294	0.29499948	-0.32109556	-0.12410617	-0.10628194
5.6161317248386176e-11	0.9579708	0.09744173	0.2698094	-0.34513623	-0.035106152	-0.0972065
8.105930172206062e-11	0.9574518	-0.15257305	0.24496433	-0.34494925	0.054968774	-0.08825536
1.0776219973547836e-10	0.8947313	-0.38837722	0.22049764	-0.32235238	0.13992393	-0.07944054
1.3661256499868112e-10	0.7788425	-0.5956521	0.19647661	-0.28060016	0.21460061	-0.07078628
1.679836574905882e-10	0.62195385	-0.76370037	0.1730183	-0.22407654	0.2751448	-0.06233476
2.0242613188192998e-10	0.43748078	-0.88659555	0.15019667	-0.15761489	0.31942123	-0.05411262
2.40451497814731e-10	0.2400194	-0.962264	0.12821396	-0.08647381	0.34668297	-0.04619272
2.82855581292176e-10	0.042572733	-0.9933249	0.10720682	-0.015338035	0.35787353	-0.038624305
3.3044487390045456e-10	-0.14302364	-0.9858505	0.0874246	0.05152833	0.35518068	-0.031497195
3.8421799866361013e-10	-0.30788022	-0.94891083	0.06912292	0.110922605	0.3418721	-0.024903495
4.452005345357333e-10	-0.4461216	-0.8934251	0.052604347	0.16072798	0.3218818	-0.018952211
5.144584834653353e-10	-0.5553869	-0.83071655	0.038149737	0.20009392	0.29928926	-0.0137445275
5.928863166366011e-10	-0.63630354	-0.77100116	0.025983997	0.22924644	0.27777505	-0.009361474
6.805213522155618e-10	-0.6915116	-0.7221825	0.016255086	0.2491367	0.2601868	-0.0058563566
7.775477313665806e-10	-0.7255015	-0.688164	0.008833253	0.26138252	0.24793062	-0.0031824305
8.833450330790628e-10	-0.7426637	-0.6696556	0.0034592159	0.26756567	0.24126247	-0.0012462809
9.984477287260527e-10	-0.74695385	-0.66487586	-0.0002830262	0.2691114	0.23954044	0.00010196824
1.123716269507439e-09	-0.74115926	-0.6713235	-0.002790284	0.26702368	0.24186334	0.0010052791
1.260043797915517e-09	-0.72715193	-0.6864624	-0.0043992796	0.26197717	0.24731758	0.0015849655
1.4115101051034207e-09	-0.705675	-0.70851517	-0.0054002055	0.25423947	0.25526273	0.0019455776
1.5777387039492506e-09	-0.6775271	-0.73547345	-0.0059791277	0.2440984	0.26497522	0.0021541507
1.7705520873618107e-09	-0.6409487	-0.76755786	-0.0063058133	0.23091999	0.27653456	0.0022718485
1.9870452651918273e-09	-0.5964242	-0.8026434	-0.006467432	0.21487877	0.2891751	0.0023300762
2.2476656491260343e-09	-0.53929174	-0.8420936	-0.0065420754	0.19429518	0.30338815	0.0023569684
2.5502446117511034e-09	-0.4692005	-0.8830673	-0.006570494	0.16904283	0.3181501	0.0023672073
2.941105119622673e-09	-0.37389818	-0.9274465	-0.006579756	0.13470745	0.33413896	0.0023705438
2.941105119622673e-09	-0.37389818	-0.9274465	-0.006579756	0.13470745	0.33413896	0.0023705438
3.3319656274942427e-09	-0.27439323	-0.9615951	-0.0065821046	0.09885797	0.34644195	0.0023713904
3.767981100531893e-09	-0.15984312	-0.9871205	-0.0065826657	0.057588026	0.3556382	0.0023715924
4.151319016232855e-09	-0.057254903	-0.998338	-0.0065826033	0.020627707	0.35967964	0.00237157
4.520136959962763e-09	0.04203561	-0.9990945	-0.006582453	-0.015144523	0.35995215	0.0023715156
4.891174090680684e-09	0.14150204	-0.98991615	-0.006582463	-0.05098013	0.3566454	0.0023715193
5.258681722414076e-09	0.23863293	-0.97108763	-0.006581859	-0.08597429	0.34986192	0.0023713019
5.651909574958579e-09	0.33994433	-0.9404226	-0.0065820958	-0.12247461	0.33881402	0.002371387
6.011356196211524e-09	0.42925125	-0.9031611	-0.0065821446	-0.15464997	0.32538947	0.0023714048
6.418117849009997e-09	0.5254215	-0.85081667	-0.006582348	-0.18929803	0.3065309	0.002371478
6.767745092187636e-09	0.6030951	-0.7976422	-0.0065824986	-0.21728215	0.28737327	0.002371532
7.168440983833981e-09	0.68549716	-0.7280455	-0.0065820133	-0.24696982	0.26229906	0.0023713573
7.527947283372758e-09	0.752668	-0.65836734	-0.0065818992	-0.27117005	0.23719555	0.0023713163
7.89271037269876e-09	0.813611	-0.5813724	-0.0065823197	-0.2931265	0.20945594	0.0023714676
8.216977220562164e-09	0.86121994	-0.5081898	-0.00658201	-0.31027895	0.18308981	0.0023713564
8.580461104320288e-09	0.9067668	-0.42158145	-0.006582141	-0.3266885	0.1518867	0.0023714034
8.967697598992224e-09	0.9457267	-0.32489643	-0.0065819235	-0.34072492	0.11705318	0.0023713252
9.335236335692339e-09	0.9732046	-0.22984657	-0.0065823067	-0.35062465	0.08280876	0.002371463
9.690840700627626e-09	0.9907245	-0.13572656	-0.006582505	-0.35693666	0.04889935	0.0023715347
1.0063314316020844e-08	0.9993366	-0.03582129	-0.0065823463	-0.3600394	0.012905637	0.0023714774
1.044681762039151e-08	0.99770397	0.067406274	-0.0065823416	-0.3594512	-0.024285026	0.0023714756
1.0817194904809714e-08	0.98603106	0.1664317	-0.006582548	-0.3552457	-0.05996175	0.00237155
1.1191815291526649e-08	0.9642521	0.2649048	-0.0065822788	-0.34739923	-0.09543948	0.0023714527
1.1576795124310296e-08	0.9316556	0.36328307	-0.0065823635	-0.3356554	-0.13088304	0.0023714835
1.1969609519866083e-08	0.8880848	0.45963266	-0.006581963	-0.31995785	-0.16559574	0.0023713391
1.2353139376665168e-08	0.8359595	0.54875183	-0.006581597	-0.30117816	-0.19770345	0.0023712073
1.2751327343483275e-08	0.7724218	0.6350759	-0.0065824827	-0.27828693	-0.22880414	0.0023715263
1.3197636173163624e-08	0.69069046	0.72312057	-0.0065838876	-0.24884085	-0.26052475	0.002372033
1.3585685802757864e-08	0.61147773	0.7912344	-0.006582189	-0.22030222	-0.28506464	0.0023714206
1.3927683321940377e-08	0.53611	0.8441226	-0.006581716	-0.19314887	-0.30411917	0.0023712502
1.4338473391446608e-08	0.43964037	0.89814985	-0.0065821605	-0.15839294	-0.32358402	0.0023714104
1.4690413594514663e-08	0.3526632	0.9357272	-0.0065824836	-0.12705694	-0.33712232	0.0023715268
1.505504449404084e-08	0.25921234	0.965798	-0.006582779	-0.09338862	-0.34795618	0.0023716332
1.5461416625930702e-08	0.15216945	0.98833257	-0.006582374	-0.054823373	-0.3560749	0.0023714872
1.5807200713789025e-08	0.05959918	0.9982007	-0.0065823016	-0.0214723	-0.35963017	0.0023714611
1.6176498111636043e-08	-0.039815724	0.9991854	-0.0065823705	0.014344746	-0.35998493	0.002371486
1.6550348197043972e-08	-0.14005138	0.9901224	-0.006582528	0.050457492	-0.35671973	0.0023715426
1.6920153727447808e-08	-0.2378111	0.97128916	-0.0065825013	0.085678205	-0.34993452	0.0023715333
1.729369865693844e-08	-0.33416465	0.9424918	-0.0065823686	0.120392315	-0.33955944	0.0023714853
1.768969861784929e-08	-0.4325939	0.9015649	-0.0065815933	0.15585425	-0.32481438	0.002371206
1.805795275282394e-08	-0.5197376	0.8543006	-0.006581947	0.18725026	-0.30778605	0.0023713335
1.8483857711928813e-08	-0.6140984	0.7892021	-0.006582373	0.2212464	-0.28433248	0.002371487
1.8834099258133195e-08	-0.68570256	0.72785217	-0.006583175	0.24704385	-0.26222944	0.002371776
1.9185919623793822e-08	-0.75149053	0.65971106	-0.006581464	0.27074584	-0.23767965	0.0023711594
1.9505107040951634e-08	-0.8053537	0.5927581	-0.006582068	0.29015154	-0.21355797	0.002371377
1.9898372833416145e-08	-0.8635053	0.50429696	-0.0065826266	0.31110233	-0.1816873	0.0023715785
2.0274805386055196e-08	-0.91011083	0.41431272	-0.006582094	0.32789326	-0.14926794	0.0023713864
2.0602580094406806e-08	-0.94309455	0.33245972	-0.0065818517	0.33977664	-0.11977807	0.002371299
2.0602580094406806e-08	-0.94309455	0.33245972	-0.0065818517	0.33977664	-0.11977807	0.002371299
2.0969355215867863e-08	-0.9712843	0.23783103	-0.0065816366	0.3499328	-0.08568539	0.0023712218
2.1352113490706745e-08	-0.9906011	0.13662419	-0.006582043	0.35689217	-0.049222745	0.002371368
2.1739857491983532e-08	-0.99944615	0.03262001	-0.0065824515	0.36007893	-0.011752285	0.0023715151
2.2112348158353132e-08	-0.9976879	-0.06764436	-0.0065824273	0.35944542	0.0243708	0.0023715065
2.2484275108223666e-08	-0.9859218	-0.16707793	-0.0065821847	0.35520634	0.060194574	0.0023714192
2.2857145281110006e-08	-0.96420485	-0.2650768	-0.006581886	0.3473822	0.09550145	0.0023713117
2.320562972391283e-08	-0.9351184	-0.3542743	-0.0065823575	0.33690298	0.12763739	0.0023714814
2.3598049017879638e-08	-0.8925257	-0.45094877	-0.0065825796	0.32155776	0.16246712	0.0023715615
2.402423195837851e-08	-0.83500695	-0.55020005	-0.006582547	0.300835	0.1982252	0.0023715496
2.4382907187917635e-08	-0.77804244	-0.62817734	-0.0065821046	0.28031188	0.22631875	0.0023713904
2.4382907187917635e-08	-0.77804244	-0.62817734	-0.0065821046	0.28031188	0.22631875	0.0023713904
2.4726382751058657e-08	-0.71668535	-0.6973657	-0.0065829996	0.2582063	0.2512458	0.0023717128
2.5070598689448874e-08	-0.6490424	-0.7607238	-0.006582724	0.23383598	0.27407235	0.0023716134
2.5070598689448874e-08	-0.6490424	-0.7607238	-0.006582724	0.23383598	0.27407235	0.0023716134
2.546267053459549e-08	-0.56524193	-0.82489896	-0.006582916	0.20364445	0.29719332	0.0023716826
2.5830934472768108e-08	-0.48077264	-0.8768206	-0.006583155	0.17321202	0.31589955	0.0023717687
2.6197898552424325e-08	-0.39190218	-0.91998345	-0.0065828036	0.1411939	0.3314502	0.002371642
2.6548634385707207e-08	-0.3033741	-0.95284873	-0.00658283	0.10929915	0.34329087	0.0023716516
2.6892116100853074e-08	-0.21405	-0.9768006	-0.006582351	0.07711759	0.3519202	0.0023714788
2.72454839367256e-08	-0.120255865	-0.99272114	-0.0065822015	0.043325588	0.357656	0.0023714253
2.761997118230652e-08	-0.019688774	-0.99978447	-0.006582317	0.0070934403	0.36020073	0.0023714667
2.798952760538342e-08	0.07975563	-0.99679273	-0.006582266	-0.028734231	0.35912287	0.0023714486
2.836467504945295e-08	0.17989056	-0.98366463	-0.0065823304	-0.064810686	0.35439315	0.0023714714
2.8733117003164913e-08	0.2764598	-0.96100295	-0.006582471	-0.099602506	0.34622866	0.0023715224
2.914513434055092e-08	0.38118273	-0.9244764	-0.0065826965	-0.13733192	0.3330689	0.0023716036
2.9508957935808137e-08	0.4698021	-0.8827473	-0.0065821144	-0.16925958	0.31803483	0.0023713938
2.9921620804333467e-08	0.5648065	-0.8251971	-0.0065827817	-0.20348762	0.2973007	0.0023716344
3.026129054362841e-08	0.63783306	-0.7701466	-0.006582255	-0.22979748	0.27746725	0.0023714444
3.065985005317686e-08	0.716679	-0.69737214	-0.0065830285	-0.25820398	0.25124815	0.0023717228
3.107661905188673e-08	0.79028267	-0.61270714	-0.0065823956	-0.2847218	0.22074518	0.0023714951
3.141553584359035e-08	0.8428455	-0.5381154	-0.006581757	-0.30365905	0.19387135	0.002371265
3.141553584359035e-08	0.8428455	-0.5381154	-0.006581757	-0.30365905	0.19387135	0.002371265
3.1784364835479284e-08	0.8920545	-0.45188007	-0.0065826885	-0.321388	0.16280264	0.0023716008
3.216626271803574e-08	0.93373686	-0.35789976	-0.006582148	-0.33640528	0.12894356	0.002371406
3.253919745455113e-08	0.9649183	-0.26246786	-0.006582327	-0.3476392	0.0945615	0.0023714704
3.290837340741858e-08	0.9862072	-0.16538477	-0.006582604	-0.35530916	0.059584565	0.00237157
3.3347296187765124e-08	0.99882966	-0.04791659	-0.0065826983	-0.35985678	0.017263314	0.002371604
3.372526377388207e-08	0.99852806	0.053837337	-0.0065823733	-0.35974813	-0.019396432	0.0023714872
3.409614272064284e-08	0.9881816	0.15314628	-0.006582591	-0.35602054	-0.055175297	0.0023715657
3.4473468626189327e-08	0.9675463	0.25260845	-0.0065824	-0.34858602	-0.09100938	0.0023714965
3.484856416354396e-08	0.937137	0.34889966	-0.006581963	-0.3376302	-0.12570101	0.0023713391
3.52077050221685e-08	0.89906216	0.43777168	-0.006582147	-0.32391274	-0.15771967	0.0023714057
3.5575918620687977e-08	0.8512997	0.52463853	-0.006582367	-0.30670494	-0.18901595	0.0023714849
3.5575918620687977e-08	0.8512997	0.52463853	-0.006582367	-0.30670494	-0.18901595	0.0023714849
3.5950117943164644e-08	0.79419523	0.60762715	-0.006581216	-0.2861314	-0.21891496	0.0023710702
3.5950117943164644e-08	0.79419523	0.60762715	-0.006581216	-0.2861314	-0.21891496	0.0023710702
3.6318374189181475e-08	0.7301304	0.6832763	-0.006582249	-0.2630502	-0.24616969	0.002371442
3.668210856020047e-08	0.65980244	0.75141037	-0.0065820883	-0.23771258	-0.2707169	0.0023713843
3.7017719453960466e-08	0.58928436	0.807899	-0.0065818653	-0.21230644	-0.29106855	0.0023713042
3.7375389368175725e-08	0.5088478	0.8608314	-0.0065818564	-0.18332687	-0.31013897	0.002371301
3.7375389368175725e-08	0.5088478	0.8608314	-0.0065818564	-0.18332687	-0.31013897	0.002371301
3.771257843993595e-08	0.428686	0.9034296	-0.006581933	-0.15444632	-0.32548618	0.0023713284
3.8056633087959217e-08	0.3432569	0.9392186	-0.0065818056	-0.12366805	-0.33838022	0.0023712823
3.8436887711039534e-08	0.24544026	0.9693894	-0.0065821665	-0.08842683	-0.34925008	0.0023714127
3.882357470853596e-08	0.14333436	0.98965245	-0.0065822685	-0.05164028	-0.3565504	0.0023714495
3.92210535324816e-08	0.0367716	0.999302	-0.0065824734	-0.013248013	-0.36002696	0.002371523
3.9597453994142244e-08	-0.06455012	0.99789274	-0.00658245	0.023256015	-0.3595192	0.0023715147
3.996935288251971e-08	-0.16401452	0.98643595	-0.0065825647	0.059090897	-0.3553916	0.0023715561
4.0362694632566757e-08	-0.2674042	0.96356195	-0.006582497	0.09633996	-0.34715056	0.0023715317
4.074799929358544e-08	-0.3657812	0.93067765	-0.0065828636	0.13178307	-0.33530307	0.0023716637
4.1099640604209355e-08	-0.4521581	0.8919136	-0.006582637	0.1629028	-0.32133722	0.0023715817
4.148073672815413e-08	-0.5411686	0.8408884	-0.006582036	0.19497135	-0.30295396	0.0023713657
4.187715994707842e-08	-0.6276959	0.7784308	-0.006582118	0.2261453	-0.28045183	0.002371395
4.2257903409864346e-08	-0.70408255	0.71008766	-0.006582046	0.25366575	-0.25582927	0.002371369
4.264689809883685e-08	-0.7744821	0.6325617	-0.0065813675	0.2790292	-0.22789833	0.0023711245
4.309199171208429e-08	-0.8445667	0.53541005	-0.006582102	0.30427915	-0.1928967	0.0023713894
4.3466660447692527e-08	-0.89420664	0.44760624	-0.006582472	0.32216337	-0.16126287	0.0023715226
4.387995107249397e-08	-0.9383948	0.3455024	-0.0065830215	0.33808342	-0.124477066	0.0023717207
4.426629964671411e-08	-0.96920633	0.24616238	-0.006582885	0.34918416	-0.08868699	0.0023716714
4.461461806125908e-08	-0.9880044	0.15428562	-0.0065824296	0.35595667	-0.05558578	0.0023715072
4.4974789988807376e-08	-0.9983025	0.05786893	-0.0065823384	0.35966682	-0.020848926	0.0023714746
4.5335945538712725e-08	-0.9992035	-0.03935746	-0.006582383	0.35999143	0.014179643	0.0023714905
4.57145330178587e-08	-0.9900075	-0.14086148	-0.0065824175	0.35667837	0.050749354	0.002371503
4.608997198027545e-08	-0.9707311	-0.24007891	-0.006582637	0.34973347	0.08649525	0.0023715817
4.645843026342834e-08	-0.9421692	-0.335073	-0.006582406	0.33944324	0.12071958	0.0023714988
4.683324673378131e-08	-0.9036038	-0.42831862	-0.0065824757	0.32554895	0.15431395	0.002371524
4.721779031311905e-08	-0.8544844	-0.5194355	-0.0065817386	0.30785227	0.18714142	0.0023712586
4.7573511508214077e-08	-0.80087906	-0.5987901	-0.006582298	0.28853944	0.21573114	0.00237146
4.791938473897866e-08	-0.7417074	-0.6706914	-0.0065823505	0.26722115	0.24163562	0.0023714788
4.8252629439007654e-08	-0.67860544	-0.7344736	-0.0065821134	0.2444869	0.264615	0.0023713936
4.8646002259930197e-08	-0.59713703	-0.8021122	-0.0065826764	0.2151356	0.2889837	0.0023715962
4.897876194762838e-08	-0.5229505	-0.8523377	-0.006582362	0.18840776	0.3070789	0.002371483
4.93384799590566e-08	-0.4380474	-0.8989278	-0.0065831663	0.15781903	0.32386428	0.0023717727
4.9694671693292014e-08	-0.34991774	-0.9367574	-0.006582725	0.12606782	0.3374935	0.0023716139
4.9694671693292014e-08	-0.34991774	-0.9367574	-0.006582725	0.12606782	0.3374935	0.0023716139
5.006259932747424e-08	-0.25552464	-0.9667801	-0.006582317	0.092060015	0.34831002	0.0023714667
5.042130816263205e-08	-0.16107313	-0.98692054	-0.0065825535	0.05803117	0.35556614	0.002371552
5.084982720876811e-08	-0.046350177	-0.99890363	-0.006582595	0.016698968	0.35988346	0.0023715668
5.12303050100048e-08	0.05607716	-0.99840474	-0.006582387	-0.020203391	0.35970366	0.0023714919
5.160031111901328e-08	0.15512933	-0.98787224	-0.0065823863	-0.055889748	0.35590905	0.0023714919
5.19776006952272e-08	0.25453642	-0.9670408	-0.006582513	-0.09170398	0.34840393	0.0023715375
5.232438408652817e-08	0.34361747	-0.9390866	-0.0065823835	-0.12379796	0.3383326	0.002371491
5.2683274152806964e-08	0.4326462	-0.9015398	-0.0065828315	-0.15587309	0.32480532	0.002371652
5.3038745832627866e-08	0.51684934	-0.85605115	-0.0065821726	-0.18620968	0.30841675	0.0023714146
5.3414199492986686e-08	0.6006229	-0.7995055	-0.0065819747	-0.21639147	0.28804457	0.0023713433
5.377976723411908e-08	0.6763024	-0.73659474	-0.0065827807	-0.24365714	0.2653792	0.002371634
5.4131732172149466e-08	0.74299055	-0.66926956	-0.0065835523	-0.26768345	0.24112338	0.002371912
5.449315884601255e-08	0.8045269	-0.59387976	-0.0065820147	-0.2898537	0.21396206	0.0023713578
5.494900322876857e-08	0.8711969	-0.49088958	-0.006582533	-0.31387347	0.1768569	0.0023715445
5.533175671404775e-08	0.91708726	-0.39863244	-0.006582834	-0.33040673	0.14361867	0.002371653
5.5676844511741916e-08	0.9501267	-0.31179494	-0.0065824967	-0.34231013	0.112332985	0.0023715314
5.606110966767687e-08	0.9772546	-0.21196744	-0.0065822587	-0.35208377	0.0763673	0.0023714458
5.644084738080124e-08	0.9937892	-0.11108446	-0.006582565	-0.3580408	0.040021334	0.0023715561
5.6812812810421556e-08	0.99991643	-0.01113219	-0.006582408	-0.3602483	0.0040106876	0.0023714998
5.719334885249318e-08	0.99580824	0.09122835	-0.0065822713	-0.35876822	-0.032867603	0.0023714504
5.756633784970207e-08	0.98163867	0.19063662	-0.0065824245	-0.35366324	-0.06868226	0.0023715054
5.794795159805233e-08	0.95690024	0.2903425	-0.0065820473	-0.3447505	-0.10460415	0.0023713694
5.832209951539915e-08	0.9228391	0.38512954	-0.00658237	-0.332479	-0.13875386	0.0023714858
5.869037180713188e-08	0.880166	0.47462046	-0.0065826373	-0.31710482	-0.17099552	0.0023715822
5.9038790795820306e-08	0.8318196	0.5550071	-0.006582607	-0.29968667	-0.19995709	0.002371571
5.939977831992969e-08	0.7740141	0.63313425	-0.0065814666	-0.27886063	-0.2281046	0.0023711603
5.939977831992969e-08	0.7740141	0.63313425	-0.0065814666	-0.27886063	-0.2281046	0.0023711603
5.97893152886822e-08	0.7034553	0.7107091	-0.006582898	-0.25343978	-0.25605315	0.0023716763
5.97893152886822e-08	0.7034553	0.7107091	-0.006582898	-0.25343978	-0.25605315	0.0023716763
6.016913868325513e-08	0.6271901	0.77883834	-0.0065835207	-0.22596306	-0.28059864	0.0023719005
6.016913868325513e-08	0.6271901	0.77883834	-0.0065835207	-0.22596306	-0.28059864	0.0023719005
6.054896207782806e-08	0.5443726	0.8388178	-0.006582582	-0.19612572	-0.30220795	0.0023715622
6.088655511108195e-08	0.46595702	0.8847829	-0.00658233	-0.16787425	-0.3187682	0.0023714714
6.124916835989589e-08	0.37746412	0.9260009	-0.00658225	-0.13599218	-0.3336181	0.0023714425
6.161398317562674e-08	0.28480464	0.958563	-0.006582061	-0.10260897	-0.3453496	0.0023713745
6.199582433713497e-08	0.18489744	0.98273575	-0.006582203	-0.06661455	-0.3540585	0.0023714257
6.237849629998002e-08	0.082810566	0.9965436	-0.0065823505	-0.029834861	-0.3590331	0.0023714788
6.276656686463337e-08	-0.021609478	0.99974483	-0.0065823803	0.0077854283	-0.36018652	0.0023714895
6.314747894837866e-08	-0.12388045	0.99227536	-0.006582203	0.04463145	-0.35749537	0.0023714257
6.351741845782278e-08	-0.2219678	0.9750318	-0.006582182	0.07997021	-0.3512829	0.0023714183
6.389670402460186e-08	-0.32024297	0.9473126	-0.0065826043	0.11537664	-0.3412963	0.00237157
6.429435627216476e-08	-0.41967198	0.9076521	-0.006583063	0.15119874	-0.32700747	0.0023717354
6.464434988678057e-08	-0.5032467	0.8641177	-0.00658278	0.18130893	-0.31132293	0.0023716334
6.501329631447413e-08	-0.5864885	0.8099308	-0.0065815947	0.21129915	-0.2918006	0.0023712064
6.542496975283346e-08	-0.67250425	0.740064	-0.0065828315	0.24228877	-0.2666291	0.002371652
6.578620003636253e-08	-0.7412126	0.6712381	-0.0065819668	0.2670429	-0.24183261	0.0023713405
6.61387387529454e-08	-0.8015121	0.59794235	-0.0065825297	0.28876755	-0.21542573	0.0023715436
6.654380162500466e-08	-0.86185515	0.5071118	-0.006583853	0.31050777	-0.18270144	0.0023720202
6.691272284751285e-08	-0.90791625	0.41909993	-0.0065833344	0.32710266	-0.15099266	0.0023718332
6.731528425924702e-08	-0.94793653	0.3183916	-0.0065821907	0.34152108	-0.11470962	0.002371421
6.768415878490643e-08	-0.9748428	0.22279622	-0.006583074	0.35121483	-0.080268666	0.0023717396
6.805882387118598e-08	-0.99232835	0.1234554	-0.0065824166	0.3575145	-0.04447832	0.0023715026
6.840896228009301e-08	-0.99954426	0.029463883	-0.0065823956	0.36011422	-0.010615202	0.0023714951
6.880291391563989e-08	-0.99704355	-0.076557264	-0.006582365	0.3592133	0.02758193	0.002371484
6.917483405292965e-08	-0.98438966	-0.17588022	-0.0065824003	0.35465434	0.06336585	0.0023714965
6.954548575677508e-08	-0.96196055	-0.2731093	-0.0065825367	0.3465736	0.09839538	0.0023715459
6.988407834952863e-08	-0.9330923	-0.35957685	-0.0065817013	0.336173	0.1295478	0.002371245
7.025301664410934e-08	-0.8928204	-0.4503647	-0.006582654	0.32166395	0.16225669	0.0023715883
7.06019136708383e-08	-0.84662044	-0.53215647	-0.006582419	0.30501908	0.19172451	0.0023715035
7.094737367510554e-08	-0.79351807	-0.6085111	-0.006582046	0.28588742	0.21923342	0.002371369
7.131364578376556e-08	-0.72973067	-0.6837031	-0.006582307	0.26290622	0.2463235	0.002371463
7.16616348189334e-08	-0.6625403	-0.74899733	-0.006582452	0.23869896	0.26984757	0.0023715154
7.205115580066196e-08	-0.5804703	-0.81425494	-0.0065823942	0.20913093	0.29335845	0.0023714947
7.236686521164319e-08	-0.50921816	-0.8606124	-0.006582444	0.18346033	0.31006008	0.0023715124
7.275401284855154e-08	-0.41687715	-0.90893906	-0.0065825423	0.15019184	0.32747114	0.0023715477
7.312662451366001e-08	-0.32371512	-0.9461317	-0.0065824683	0.116627574	0.34087086	0.0023715212
7.34848687230987e-08	-0.23105909	-0.9729175	-0.006582772	0.083245605	0.3505212	0.0023716306
7.385318520442778e-08	-0.13356754	-0.9910179	-0.006582487	0.048121504	0.35704234	0.0023715277
7.420391220695637e-08	-0.039496966	-0.9991981	-0.0065822685	0.014229904	0.3599895	0.0023714495
7.457853198339554e-08	0.061347887	-0.9980948	-0.0065822634	-0.02210232	0.35959202	0.0023714476
7.495292967014338e-08	0.1615104	-0.98684907	-0.0065822247	-0.05818871	0.3555404	0.0023714337
7.533352074466881e-08	0.26163924	-0.9651433	-0.006581947	-0.09426297	0.34772032	0.0023713335
7.570874364776626e-08	0.3576714	-0.9338243	-0.0065822788	-0.1288613	0.33643675	0.0023714527
7.607682537647523e-08	0.44833502	-0.8938414	-0.0065813535	-0.16152543	0.32203174	0.0023711198
7.642286616353927e-08	0.5295648	-0.84824395	-0.006581657	-0.19079077	0.30560398	0.0023712292
7.6759416171975e-08	0.604169	-0.796829	-0.0065816096	-0.21766904	0.2870803	0.002371212
7.714865842461931e-08	0.6842328	-0.72923404	-0.006581821	-0.24651432	0.26272732	0.002371288
7.751710327134617e-08	0.75310767	-0.65786433	-0.006582478	-0.27132845	0.23701434	0.002371525
7.785518485405818e-08	0.80980617	-0.5866606	-0.0065820245	-0.29175568	0.21136117	0.0023713615
7.820377795656519e-08	0.86123735	-0.5081604	-0.0065823896	-0.3102852	0.18307924	0.002371493
7.855793795398825e-08	0.90572286	-0.42381936	-0.006582705	-0.32631242	0.15269297	0.0023716064
7.855793795398825e-08	0.90572286	-0.42381936	-0.006582705	-0.32631242	0.15269297	0.0023716064
7.88927115664393e-08	0.9402062	-0.34054208	-0.006582064	-0.33873606	0.12268997	0.0023713754
7.924141384529124e-08	0.9679974	-0.25087422	-0.006581952	-0.34874853	0.09038456	0.0023713354
7.96183173314988e-08	0.98843676	-0.15149127	-0.0065824892	-0.35611245	0.054579034	0.002371529
7.9970350905786e-08	0.99833924	-0.05723281	-0.0065823467	-0.35968006	0.020619746	0.0023714774
8.034765964806969e-08	0.9989949	0.044339616	-0.0065823765	-0.35991627	-0.015974607	0.0023714881
8.072075795586307e-08	0.98950714	0.14433393	-0.0065824594	-0.35649812	-0.052000403	0.002371518
8.109050938056367e-08	0.97025377	0.24200083	-0.0065828245	-0.34956145	-0.08718768	0.0023716497
8.148106358452051e-08	0.9394819	0.34253553	-0.0065823947	-0.33847505	-0.12340817	0.0023714947
8.182262317361475e-08	0.90404385	0.4273891	-0.0065826676	-0.3257075	-0.15397906	0.0023715931
8.215387449677047e-08	0.8623676	0.5062399	-0.006582696	-0.31069243	-0.1823873	0.0023716036
8.251904373974742e-08	0.8084927	0.5884695	-0.0065814955	-0.2912825	-0.21201286	0.002371171
8.289565009115519e-08	0.7447566	0.66730386	-0.0065811505	-0.26831973	-0.24041517	0.0023710467
8.329064977169152e-08	0.66969854	0.7426039	-0.00658151	-0.24127793	-0.26754415	0.0023711761
8.364022220486889e-08	0.5969271	0.8022686	-0.0065819733	-0.21505997	-0.2890401	0.0023713429
8.397680644693045e-08	0.5218484	0.85301286	-0.006582622	-0.18801072	-0.3073221	0.0023715766
8.4352598222004e-08	0.43299156	0.9013739	-0.0065822504	-0.15599751	-0.3247456	0.0023714425
8.470048381562861e-08	0.34676066	0.93793064	-0.0065817065	-0.12493038	-0.3379162	0.002371247
8.470048381562861e-08	0.34676066	0.93793064	-0.0065817065	-0.12493038	-0.3379162	0.002371247
8.504188111831472e-08	0.2591799	0.9658067	-0.0065821763	-0.09337692	-0.34795928	0.0023714164
8.541415679635443e-08	0.16120285	0.98689944	-0.006582198	-0.058077905	-0.35555857	0.0023714239
8.579344232237433e-08	0.059722736	0.9981933	-0.0065825656	-0.021516813	-0.35962752	0.0023715561
8.615852992462673e-08	-0.038560715	0.9992346	-0.006582345	0.013892594	-0.36000267	0.002371477
8.652868760148978e-08	-0.1378232	0.990435	-0.006582239	0.049654722	-0.35683233	0.0023714388
8.691448955242612e-08	-0.23980804	0.970798	-0.006582337	0.08639767	-0.34975755	0.0023714737
8.729181407473783e-08	-0.3370592	0.9414605	-0.006582735	0.12143515	-0.33918786	0.0023716174
8.767791689775893e-08	-0.4329647	0.90138686	-0.006582273	0.15598783	-0.32475024	0.002371451
8.805061221107346e-08	-0.52110934	0.85346466	-0.006582131	0.18774445	-0.30748487	0.0023714
8.843425105954383e-08	-0.60635215	0.795169	-0.00658223	0.21845561	-0.28648224	0.0023714355
8.877040177592332e-08	-0.6757637	0.737089	-0.0065826476	0.2434631	-0.26555726	0.002371586
8.916176556491539e-08	-0.74956703	0.66189575	-0.0065824683	0.27005282	-0.23846677	0.0023715212
8.916176556491539e-08	-0.74956703	0.66189575	-0.0065824683	0.27005282	-0.23846677	0.0023715212
8.953295563469199e-08	-0.81188864	0.5837753	-0.0065828976	0.29250592	-0.21032164	0.0023716758
8.988195767168776e-08	-0.8631021	0.50498664	-0.006583381	0.31095707	-0.18193579	0.00237185
9.030758199766192e-08	-0.9151985	0.40294987	-0.006581654	0.32972628	-0.14517415	0.0023712278
9.06703465163354e-08	-0.9501403	0.31175354	-0.006582419	0.34231502	-0.11231807	0.0023715035
9.103667589344578e-08	-0.9762282	0.21664563	-0.0065821246	0.35171396	-0.07805275	0.0023713973
9.140286962843382e-08	-0.99281615	0.11946912	-0.006582149	0.35769022	-0.043042146	0.0023714062
9.17715032485849e-08	-0.9997688	0.020472571	-0.006582296	0.36019513	-0.0073758257	0.0023714593
9.21571942764163e-08	-0.99650246	-0.083304375	-0.0065822937	0.35901836	0.030012768	0.0023714583
9.252936941792461e-08	-0.9831642	-0.18260625	-0.006582462	0.35421285	0.065789096	0.0023715193
9.289853953083564e-08	-0.9601815	-0.27929944	-0.006582186	0.3459327	0.10062556	0.0023714197
9.326928645393212e-08	-0.9275552	-0.37362826	-0.0065822387	0.33417815	0.1346102	0.0023714388
9.366341113891378e-08	-0.88274914	-0.46979848	-0.0065822406	0.31803548	0.16925825	0.0023714392
9.402248937181936e-08	-0.8332615	-0.55283993	-0.0065817395	0.30020612	0.19917628	0.0023712588
9.44484228074894e-08	-0.76450884	-0.64457977	-0.006582722	0.27543604	0.23222819	0.0023716127
9.480315447410779e-08	-0.69953394	-0.71456915	-0.006581828	0.25202698	0.25744385	0.0023712907
9.513533217986292e-08	-0.6328941	-0.77421045	-0.006582511	0.22801809	0.27893132	0.0023715366
9.550501146158676e-08	-0.552794	-0.833292	-0.006583137	0.19915976	0.30021712	0.0023717622
9.550501146158676e-08	-0.552794	-0.833292	-0.006583137	0.19915976	0.30021712	0.0023717622
9.58556668740323e-08	-0.47174245	-0.88171184	-0.006582618	0.16995862	0.31766176	0.0023715752
9.619743947339606e-08	-0.3886971	-0.92134213	-0.006582113	0.14003918	0.3319397	0.0023713931
9.666389078062942e-08	-0.27019787	-0.9627824	-0.0065823277	0.09734646	0.3468697	0.0023714704
9.70372345196663e-08	-0.17218314	-0.98504305	-0.0065824063	0.06203387	0.35488975	0.0023714993
9.743584828053648e-08	-0.06564119	-0.9978216	-0.0065824846	0.023649104	0.3594936	0.0023715273
9.781587137179781e-08	0.03665377	-0.99930644	-0.006582421	-0.013205562	0.36002854	0.002371504
9.818845925387626e-08	0.13658181	-0.99060696	-0.006582321	-0.049207482	0.3568943	0.0023714683
9.856327818451239e-08	0.23571761	-0.9717993	-0.006581959	-0.08492397	0.35011834	0.0023713377
9.894043553674608e-08	0.3330484	-0.9428868	-0.0065830345	-0.119990155	0.33970177	0.0023717254
9.933554769381244e-08	0.43132	-0.90217507	-0.0065819584	-0.1553953	0.3250342	0.0023713377
9.973502790827553e-08	0.5256999	-0.8506447	-0.0065822126	-0.18939833	0.3064689	0.002371429
1.0008367883032666e-07	0.60314476	-0.7976046	-0.0065820427	-0.21730006	0.28735974	0.002371368
1.0046334133100767e-07	0.68140906	-0.7318732	-0.006583236	-0.24549699	0.26367813	0.0023717978
1.0079436037159843e-07	0.74387175	-0.66829	-0.0065829945	-0.26800096	0.24077046	0.0023717107
1.0113842000383467e-07	0.8025247	-0.5965827	-0.0065822313	-0.2891323	0.21493588	0.002371436
1.0153187439079568e-07	0.8611237	-0.508353	-0.0065824855	-0.31024426	0.1831486	0.0023715275
1.0189887705170703e-07	0.9070883	-0.42088908	-0.006582522	-0.32680434	0.15163726	0.0023715408
1.0229983613335303e-07	0.9471686	-0.32066885	-0.006582712	-0.34124443	0.115530066	0.002371609
1.0265130882497351e-07	0.973238	-0.22970515	-0.00658251	-0.3506366	0.082757816	0.0023715366
1.029935975515144e-07	0.99025244	-0.13912912	-0.0065823807	-0.35676658	0.05012522	0.0023714895
1.029935975515144e-07	0.99025244	-0.13912912	-0.0065823807	-0.35676658	0.05012522	0.0023714895
1.0335870560099338e-07	0.9991278	-0.0412362	-0.0065823463	-0.3599642	0.014856514	0.0023714774
1.0375411756159582e-07	0.9978506	0.06519916	-0.0065824054	-0.35950398	-0.023489848	0.0023714984
1.0412424001503781e-07	0.9864082	0.1641818	-0.006582125	-0.35538158	-0.059151158	0.0023713978