# t (s)	mx ()	my ()	mz ()	B_demagx (T)	B_demagy (T)	B_demagz (T)
0	0.6666667	0.6666667	0.33333334	-0.24018563	-0.24018563	-0.12009282
1.023e-12	0.67611825	0.65773654	0.33203438	-0.24359083	-0.23696828	-0.11962482
2.047e-12	0.685422	0.6486982	0.33073765	-0.24694276	-0.23371196	-0.11915763
4.095e-12	0.70355654	0.6303354	0.3281548	-0.25347626	-0.22709623	-0.1182271
8.191e-12	0.737926	0.5925502	0.32303172	-0.26585883	-0.21348307	-0.11638136
1.6383e-11	0.79904693	0.5134025	0.31295678	-0.28787938	-0.18496786	-0.11275157
3.2767e-11	0.89126587	0.345696	0.29349548	-0.32110387	-0.12454681	-0.105740085
5.619787706475622e-11	0.9583987	0.100217	0.2672613	-0.34529036	-0.03610602	-0.09628847
8.121549793759814e-11	0.9590898	-0.14805539	0.24130175	-0.34553936	0.053341165	-0.08693581
1.0812624064293406e-10	0.89868236	-0.38191003	0.21567309	-0.32377586	0.13759395	-0.07770236
1.3733161806458933e-10	0.7864781	-0.5875292	0.19042495	-0.28335112	0.21167406	-0.068606004
1.6928936457573194e-10	0.63474655	-0.75475395	0.1656603	-0.22868548	0.27192158	-0.05968383
2.0456268320662059e-10	0.45750442	-0.8778747	0.1415131	-0.16482897	0.3162793	-0.050984114
2.4386264973009964e-10	0.26916024	-0.9558212	0.118146434	-0.09697263	0.34436175	-0.042565614
2.880476084691381e-10	0.08346174	-0.99189717	0.0957815	-0.030069465	0.35735917	-0.034508012
3.3819876920834745e-10	-0.08775567	-0.9933389	0.07467849	0.031616475	0.3578786	-0.026905049
3.955058807604653e-10	-0.23496434	-0.97043616	0.05518778	0.08465259	0.34962723	-0.019882966
4.6131495292135445e-10	-0.35183844	-0.93530196	0.037683643	0.1267598	0.33696914	-0.0135766035
5.365550625681809e-10	-0.434788	-0.90024906	0.022605946	0.15664473	0.3243403	-0.008144435
6.215301150562354e-10	-0.4834562	-0.8753083	0.010273286	0.17417884	0.3153547	-0.0037012433
7.151822739395454e-10	-0.50012374	-0.86595356	0.0007950962	0.1801838	0.31198436	-0.00028645602
8.161476068711527e-10	-0.48914835	-0.8721794	-0.006100697	0.1762296	0.31422743	0.0021979494
9.248502277110447e-10	-0.45455256	-0.8906525	-0.010961231	0.16376546	0.3208829	0.0039490946
1.0414966762566256e-09	-0.39924455	-0.9167335	-0.014269287	0.14383921	0.3302793	0.0051409164
1.1680509717373455e-09	-0.324428	-0.94576716	-0.016465735	0.11688441	0.3407395	0.005932249
1.305943137813913e-09	-0.23093803	-0.9728044	-0.017869644	0.08320199	0.35048047	0.0064380467
1.4600911650735845e-09	-0.11695796	-0.99296004	-0.018740969	0.04213743	0.35774207	0.0067519667
1.640020462240474e-09	0.022924418	-0.99955165	-0.019261183	-0.0082591735	0.36011687	0.006939389
1.865107585862251e-09	0.2004888	-0.97950095	-0.019551372	-0.07223179	0.35289305	0.0070439377
1.865107585862251e-09	0.2004888	-0.97950095	-0.019551372	-0.07223179	0.35289305	0.0070439377
2.0765165255309427e-09	0.36302802	-0.93157077	-0.019663917	-0.13079116	0.33562487	0.007084485
2.295285176898964e-09	0.5207677	-0.85347086	-0.01971279	-0.18762137	0.30748713	0.007102093
2.5018271040218855e-09	0.65515804	-0.75523424	-0.019731557	-0.23603928	0.2720946	0.0071088546
2.703926367290528e-09	0.7691678	-0.638742	-0.019739822	-0.27711457	0.23012497	0.0071118316
2.911648052621026e-09	0.86504245	-0.50131017	-0.019743916	-0.31165612	0.18061124	0.007113307
3.107154948413745e-09	0.9331284	-0.35900083	-0.019745555	-0.33618605	0.12934026	0.0071138972
3.3062709940486087e-09	0.97858566	-0.20489073	-0.01974608	-0.35256326	0.07381771	0.0071140868
3.509940063966775e-09	0.9989304	-0.041812453	-0.019746302	-0.35989302	0.015064125	0.0071141664
3.711102222260598e-09	0.99253064	0.120387204	-0.019746484	-0.3575874	-0.043372914	0.0071142325
3.912346386457537e-09	0.9599491	0.27947783	-0.019746408	-0.34584892	-0.10068983	0.0071142046
4.112187307933692e-09	0.9025312	0.43017167	-0.019746143	-0.32516253	-0.15498155	0.0071141096
4.313255745389496e-09	0.82106817	0.57048863	-0.019746477	-0.29581314	-0.20553473	0.0071142293
4.515734927648616e-09	0.71718633	0.6966017	-0.01974743	-0.25838673	-0.25097054	0.0071145734
4.717534490775292e-09	0.59458894	0.80378735	-0.019747091	-0.21421757	-0.28958723	0.0071144504
4.920892661298222e-09	0.45509967	0.89022166	-0.019746756	-0.16396259	-0.32072765	0.007114331
5.122816875764772e-09	0.3044552	0.952322	-0.019746972	-0.10968864	-0.34310108	0.0071144076
5.325360142106276e-09	0.1452284	0.9892011	-0.019746948	-0.052322656	-0.3563878	0.0071143997
5.525959007622604e-09	-0.016308423	0.99967206	-0.019746715	0.0058755735	-0.3601603	0.007114316
5.726670109810221e-09	-0.17750561	0.9839217	-0.019746587	0.06395145	-0.35448575	0.007114269
5.928045959570636e-09	-0.33455017	0.94217116	-0.019746715	0.12053121	-0.33944392	0.007114316
6.1278262453874725e-09	-0.48162875	0.8761529	-0.019746915	0.17352045	-0.315659	0.007114387
6.333230694007558e-09	-0.61975527	0.7845467	-0.019746302	0.22328445	-0.28265524	0.0071141664
6.5303147000359755e-09	-0.7363196	0.6763459	-0.019746726	0.26528007	-0.24367282	0.007114319
6.733329106411356e-09	-0.8368825	0.54702634	-0.019746637	0.3015107	-0.19708177	0.0071142865
6.927825673861951e-09	-0.91218275	0.4093076	-0.019746426	0.32863978	-0.1474647	0.007114211
7.127939216951369e-09	-0.9661779	0.25711942	-0.019746745	0.34809306	-0.09263457	0.007114326
7.3303785203126855e-09	-0.99515134	0.09635333	-0.019746507	0.35853156	-0.03471403	0.007114241
7.530075288999904e-09	-0.9977046	-0.064773776	-0.019746598	0.3594514	0.023336593	0.0071142735
7.731708259263323e-09	-0.9739869	-0.22574249	-0.019746663	0.3509065	0.08133015	0.0071142972
7.932684156210116e-09	-0.9246764	-0.3802416	-0.019746494	0.33314097	0.13699284	0.007114236
8.134614565839784e-09	-0.8506307	-0.5253927	-0.019746684	0.3064639	0.18928765	0.007114304
8.33822354709838e-09	-0.7530987	-0.6576112	-0.019747082	0.27132523	0.23692313	0.0071144477
8.536862424717399e-09	-0.63832474	-0.7695139	-0.01974645	0.22997463	0.27723926	0.0071142195
8.735257130931942e-09	-0.5073145	-0.8615347	-0.019746738	0.18277447	0.31039238	0.007114324
8.932494452001362e-09	-0.36416602	-0.9311247	-0.019746484	0.13120116	0.33546418	0.0071142325
9.135206227449032e-09	-0.2074651	-0.9780432	-0.019746518	0.07474519	0.35236788	0.0071142437
9.336051375397445e-09	-0.04671627	-0.9987131	-0.019746585	0.016830865	0.35981476	0.0071142684
9.537222087088554e-09	0.11552121	-0.99310875	-0.01974656	-0.0416198	0.35779566	0.00711426
9.738238399021172e-09	0.2745932	-0.9613577	-0.019746633	-0.09893	0.34635645	0.0071142856
9.93969672931455e-09	0.42676076	-0.90414906	-0.019746576	-0.15375268	0.3257454	0.0071142656
1.0141313143814942e-08	0.5677495	-0.8229646	-0.019746156	-0.20454788	0.29649642	0.0071141147
1.0341758788880431e-08	0.69302255	-0.7206455	-0.019746454	-0.24968107	0.25963306	0.0071142213
1.0543811503714456e-08	0.80093557	-0.59842485	-0.019746372	-0.2885598	0.21559957	0.0071141915
1.0744193428059289e-08	0.88692707	-0.4614874	-0.019746443	-0.31954068	0.16626397	0.0071142176
1.0946501595502843e-08	0.9502047	-0.31100053	-0.019746706	-0.34233826	0.11204677	0.007114312
1.1147942805853279e-08	0.98804224	-0.1529142	-0.019746462	-0.3559703	0.055091687	0.007114224
1.1344981647985633e-08	0.99978906	0.005658277	-0.019746536	-0.36020243	-0.0020385552	0.007114251
1.154602122605049e-08	0.98571265	0.1672744	-0.019746393	-0.35513097	-0.06026536	0.0071141995
1.1746532114776249e-08	0.94582283	0.3240821	-0.019746574	-0.34075958	-0.11675979	0.007114264
1.1947455876778679e-08	0.88100404	0.47269648	-0.019746356	-0.31740677	-0.17030236	0.007114186
1.2147619245720676e-08	0.7933901	0.60839325	-0.01974681	-0.28584135	-0.21919096	0.00711435
1.2352031672635334e-08	0.6825649	0.7305581	-0.0197463	-0.24591342	-0.26320434	0.007114166
1.2554700975703025e-08	0.5543359	0.8320588	-0.019746574	-0.19971526	-0.29977286	0.007114264
1.2753396257627475e-08	0.41419804	0.90997255	-0.019746605	-0.14922662	-0.3278435	0.0071142754
1.2951634199953493e-08	0.263762	0.96438575	-0.019746816	-0.09502776	-0.34744737	0.0071143517
1.3156322791466743e-08	0.10139042	0.9946508	-0.019746652	-0.03652878	-0.35835123	0.0071142926
1.3357706234821152e-08	-0.0610824	0.99793744	-0.01974661	0.022006672	-0.35953534	0.0071142777
1.355871579354249e-08	-0.22164652	0.9749271	-0.019746518	0.07985446	-0.3512452	0.0071142437
1.3760063182231868e-08	-0.37662822	0.92615414	-0.019746192	0.13569105	-0.33367333	0.0071141263
1.3960870570569146e-08	-0.5212898	0.8531513	-0.019746108	0.18780947	-0.30737203	0.0071140965
1.4159977473161556e-08	-0.65121764	0.75863415	-0.01974614	0.23461965	-0.27331954	0.007114108
1.4360271313444896e-08	-0.76494694	0.6437906	-0.019746728	0.27559388	-0.23194385	0.00711432
1.4561777747803732e-08	-0.85918844	0.5112782	-0.0197473	0.30954707	-0.18420249	0.0071145264
1.4761462601465055e-08	-0.93016523	0.36660987	-0.01974689	0.33511844	-0.13208163	0.0071143783
1.4962587925444955e-08	-0.9772256	0.21128225	-0.019746775	0.3520733	-0.076120436	0.007114337
1.5164072121420137e-08	-0.99854904	0.050099183	-0.019746592	0.35975567	-0.018049655	0.0071142707
1.536329501908064e-08	-0.9936696	-0.11059285	-0.019746652	0.35799772	0.039844215	0.0071142926
1.556452571392265e-08	-0.9626612	-0.26998794	-0.019746775	0.34682605	0.09727085	0.007114337
1.5765465630076216e-08	-0.90635884	-0.42204732	-0.0197461	0.32654154	0.15205455	0.007114094
1.5968684327398005e-08	-0.8251805	-0.56452405	-0.01974623	0.29729474	0.20338583	0.0071141412
1.6168648208327182e-08	-0.72362155	-0.6899144	-0.019746054	0.26070523	0.24856126	0.007114077
1.636577351387479e-08	-0.6050418	-0.79594886	-0.01974618	0.21798348	0.28676322	0.007114123
1.6567635699300574e-08	-0.46776778	-0.88363093	-0.019746602	0.16852665	0.31835318	0.0071142744
1.6765682967383512e-08	-0.32099387	-0.9468754	-0.019746814	0.11564717	0.34113878	0.007114351
1.6966214893758064e-08	-0.16403739	-0.98625654	-0.019746829	0.05909913	0.35532695	0.0071143564
1.7166702943325233e-08	-0.002819624	-0.9998011	-0.019746661	0.0010158496	0.36020678	0.007114296
1.7366807729018898e-08	0.15816545	-0.98721516	-0.01974662	-0.0569836	0.35567233	0.0071142814
1.756778618381773e-08	0.3156942	-0.9486556	-0.019746317	-0.11373781	0.34178013	0.007114172
1.7770379371487023e-08	0.46606973	-0.8845276	-0.01974646	-0.16791487	0.31867623	0.007114223
1.7971097894250895e-08	0.60277677	-0.79766554	-0.01974606	-0.21716747	0.28738165	0.007114079
1.8174767352678378e-08	0.72530717	-0.6881422	-0.019747108	-0.26131254	0.24792278	0.007114457
1.8374927360047276e-08	0.82665074	-0.56236887	-0.01974665	-0.29782444	0.20260936	0.007114292
1.857775708786225e-08	0.9073263	-0.41996327	-0.01974655	-0.32689008	0.15130371	0.007114256
1.877657321852792e-08	0.9628186	-0.269426	-0.019746693	-0.34688276	0.09706838	0.0071143075
1.8979660217721365e-08	0.99389786	-0.10852303	-0.019746566	-0.3580799	0.03909851	0.0071142614
1.9180002217981624e-08	0.99839497	0.053081557	-0.019746576	-0.35970014	-0.019124141	0.0071142656
1.938136835690347e-08	0.9766108	0.21410622	-0.019746544	-0.35185176	-0.07713786	0.007114253
1.9581894612852708e-08	0.9292811	0.3688451	-0.019746516	-0.3347999	-0.13288693	0.0071142437
1.9782183194391944e-08	0.8577077	0.51375836	-0.019746369	-0.30901358	-0.18509606	0.007114191
1.9985005946337728e-08	0.7623983	0.6468067	-0.019746447	-0.27467567	-0.2330305	0.0071142185
2.0187452508818117e-08	0.6468918	0.7623262	-0.019746797	-0.23306115	-0.27464968	0.0071143443
2.0385652391370924e-08	0.51705235	0.855726	-0.019746356	-0.18628281	-0.3082996	0.007114186
2.058330632055373e-08	0.37439194	0.9270603	-0.019746287	-0.13488534	-0.3339998	0.007114161
2.078173948448743e-08	0.22158991	0.97494006	-0.01974639	-0.07983407	-0.35124987	0.007114198
2.0982171939085623e-08	0.06149089	0.99791235	-0.019746445	-0.02215384	-0.35952625	0.007114218
2.118369640110427e-08	-0.101095155	0.9946808	-0.019746438	0.0364224	-0.35836202	0.0071142158
2.1384669669836027e-08	-0.26057765	0.9652509	-0.019746728	0.093880504	-0.34775907	0.00711432
2.158633109867413e-08	-0.4137103	0.9101945	-0.019746756	0.14905089	-0.32792345	0.007114331
2.1785810875363936e-08	-0.5544178	0.8320043	-0.01974655	0.19974476	-0.2997532	0.007114256
2.198718093465886e-08	-0.68187	0.7312068	-0.019746644	0.24566305	-0.263438	0.0071142903
2.2186154874670978e-08	-0.790127	0.61262506	-0.019746404	0.2846657	-0.22071558	0.0071142027
2.238659377082444e-08	-0.8785699	0.4772056	-0.019746158	0.31652975	-0.17192689	0.007114115
2.2585982372023692e-08	-0.9437406	0.33009678	-0.01974631	0.3400094	-0.11892675	0.007114169
2.2788914946339737e-08	-0.9849654	0.1716199	-0.019746523	0.3548618	-0.061830945	0.007114246
2.2990401409520235e-08	-0.9997579	0.009706049	-0.019746572	0.3601912	-0.0034968802	0.007114264
2.3190465766952752e-08	-0.9882862	-0.15132932	-0.019746624	0.3560582	0.05452069	0.007114283
2.339174574530402e-08	-0.9507424	-0.3093525	-0.019746399	0.34253204	0.11145303	0.007114201
2.3590728871910158e-08	-0.88895833	-0.45756245	-0.01974661	0.3202725	0.16484988	0.0071142777
2.3793794965590698e-08	-0.80228055	-0.5966206	-0.019746955	0.28904438	0.21494955	0.007114402
2.3993653244202717e-08	-0.69591427	-0.7178533	-0.019747067	0.2507229	0.25862706	0.0071144425
2.4194870694461052e-08	-0.5705377	-0.821034	-0.019746687	0.20555243	0.2958008	0.007114305
2.4395997408255803e-08	-0.43018097	-0.9025267	-0.019746479	0.15498492	0.32516086	0.0071142307
2.4597683131090896e-08	-0.27805498	-0.96036226	-0.019746633	0.10017721	0.3459978	0.0071142856
2.479820783909736e-08	-0.11949272	-0.9926387	-0.019746631	0.04305065	0.35762632	0.0071142856
2.4996866351850927e-08	0.040693924	-0.9989765	-0.019746609	-0.014661143	0.3599097	0.007114277
2.519863429025192e-08	0.20229463	-0.9791257	-0.019746685	-0.072882384	0.35275787	0.007114305
2.5399542573764186e-08	0.35788256	-0.93355787	-0.019746713	-0.12893736	0.33634073	0.007114315
2.559812353008408e-08	0.5024356	-0.8643892	-0.019746482	-0.18101671	0.3114208	0.007114232
2.5800997482450177e-08	0.63675845	-0.7708105	-0.019746779	-0.22941032	0.27770638	0.0071143387
2.600509761366137e-08	0.75465983	-0.65581906	-0.01974636	-0.27188766	0.23627745	0.007114187
2.6205910913736303e-08	0.85069096	-0.5252952	-0.019746305	-0.3064856	0.18925253	0.007114168
2.6404342331761675e-08	0.9236412	-0.3827495	-0.019746792	-0.332768	0.13789639	0.0071143424
2.6607425635327284e-08	0.97375864	-0.2267252	-0.019746725	-0.35082418	0.0816842	0.007114318
2.6812088617411e-08	0.9977968	-0.06333801	-0.019746473	-0.35948464	0.02281932	0.0071142283
2.7013748702975124e-08	0.9948553	0.09936306	-0.019746564	-0.3584249	-0.035798367	0.007114261
2.721481202794665e-08	0.9656844	0.2589668	-0.019746672	-0.34791526	-0.09330016	0.0071143
2.7415615209523686e-08	0.91116935	0.41155872	-0.019746307	-0.32827467	-0.1482757	0.0071141687
2.7615092926064095e-08	0.83331347	0.55244803	-0.019746583	-0.30022484	-0.19903511	0.007114268
2.781614744932026e-08	0.7329895	0.67995346	-0.019746654	-0.2640803	-0.24497259	0.007114293
2.8015229065059492e-08	0.61462307	0.7885738	-0.019746495	-0.22143544	-0.28410614	0.0071142362
2.8212700086609764e-08	0.48152703	0.87620884	-0.019746572	-0.1734838	-0.31567913	0.007114264
2.8414929991637936e-08	0.33257526	0.94286996	-0.019746833	-0.119819686	-0.33969572	0.0071143573
2.8620740404263198e-08	0.17191526	0.9849138	-0.019746682	-0.06193736	-0.3548432	0.0071143033
2.8818804921753865e-08	0.012769632	0.9997235	-0.019746507	-0.0046006227	-0.3601788	0.007114241
2.901930778970948e-08	-0.14864984	0.9886928	-0.019746408	0.053555332	-0.3562047	0.0071142046
2.9220225744326115e-08	-0.30649513	0.9516674	-0.019746436	0.11042359	-0.34286523	0.0071142153
2.9422352892817232e-08	-0.45715052	0.8891702	-0.01974649	0.16470146	-0.32034886	0.0071142344
2.9622889295632387e-08	-0.59460735	0.8037738	-0.019746656	0.21422419	-0.28958237	0.007114294
2.9822255670183624e-08	-0.7158276	0.69799787	-0.0197467	0.2578972	-0.2514736	0.0071143103
3.002275659854685e-08	-0.81903976	0.573397	-0.019746393	0.29508236	-0.20658256	0.0071141995
3.022832520406629e-08	-0.9025707	0.4300887	-0.019746907	0.32517672	-0.15495169	0.007114385
3.0436588322693114e-08	-0.96185493	0.2728468	-0.019746566	0.34653556	-0.098300815	0.0071142614
3.063942140643309e-08	-0.9934829	0.112258404	-0.019746544	0.35793042	-0.040444285	0.007114253
3.0841568927469334e-08	-0.9985145	-0.0507846	-0.019746568	0.35974324	0.018296596	0.007114262
3.104285784223332e-08	-0.977114	-0.21179797	-0.019746628	0.35203308	0.07630624	0.007114284
3.124394655442638e-08	-0.9299836	-0.36707047	-0.019746117	0.33505303	0.13224757	0.0071141003
3.1445693806219565e-08	-0.8580849	-0.5131281	-0.019746315	0.30914944	0.18486899	0.007114171
3.16449070506295e-08	-0.7647545	-0.6440192	-0.019746976	0.27552456	0.23202622	0.0071144095
3.184266441848684e-08	-0.65254116	-0.75749606	-0.019746482	0.2350965	0.2729095	0.007114232
3.204466501667404e-08	-0.52078074	-0.8534621	-0.019746868	0.18762606	0.30748397	0.0071143704
3.224443060316935e-08	-0.37685207	-0.926063	-0.019746065	0.13577166	0.33364052	0.0071140816
3.244464156005941e-08	-0.22277766	-0.97466934	-0.019746682	0.08026199	0.35115233	0.0071143033
3.264635772852597e-08	-0.061670214	-0.9979013	-0.019746568	0.022218447	0.3595223	0.007114262
3.2847501944575144e-08	0.10061163	-0.9947299	-0.019746555	-0.0362482	0.35837972	0.007114258
3.304865632381845e-08	0.26024988	-0.96533936	-0.019746577	-0.09376242	0.34779096	0.007114266
3.325059368222408e-08	0.4136048	-0.9102424	-0.019746687	-0.14901286	0.3279407	0.007114305
3.345225628449447e-08	0.5557886	-0.8310892	-0.019747028	-0.20023865	0.29942352	0.007114428
3.365309436258048e-08	0.68276477	-0.7303714	-0.019747023	-0.24598542	0.26313707	0.0071144262
3.385668294555284e-08	0.7931528	-0.60870254	-0.019746175	-0.28575584	0.21930239	0.0071141208
3.405784221518871e-08	0.8811986	-0.4723338	-0.019746056	-0.3174768	0.17017165	0.007114078
3.425637634213216e-08	0.9453288	-0.32552084	-0.019746536	-0.3405816	0.117278144	0.007114251
3.4455193738872364e-08	0.98522544	-0.17012039	-0.019746827	-0.35495546	0.061290707	0.0071143555
3.4659692038490244e-08	0.9997886	-0.00574962	-0.019746682	-0.36020225	0.002071464	0.0071143033
3.48603731807383e-08	0.98760206	0.15573163	-0.019746546	-0.35581172	-0.056106746	0.0071142544
3.5061478492379503e-08	0.9493988	0.3134518	-0.019746615	-0.3420479	-0.11292992	0.007114279
3.526301162012019e-08	0.8860229	0.46322092	-0.019746436	-0.31921494	-0.16688852	0.0071142153
3.54645544287558e-08	0.79920036	0.6007404	-0.019746512	-0.28793463	-0.2164338	0.007114242
3.566345004161089e-08	0.6927739	0.7208845	-0.019746441	-0.24959148	-0.25971913	0.0071142167
3.586524819550556e-08	0.56656605	0.8237797	-0.019746533	-0.20412153	-0.29679006	0.0071142493
3.6065146536845504e-08	0.4267156	0.9041703	-0.01974683	-0.15373643	-0.32575303	0.0071143573
3.6266568717793525e-08	0.27457398	0.96136326	-0.019746462	-0.09892309	-0.34635842	0.007114224
3.646871222047442e-08	0.11459679	0.99321586	-0.019746665	-0.04128675	-0.35783422	0.0071142977
3.6670130233651264e-08	-0.047845893	0.9986596	-0.0197466	0.017237842	-0.35979554	0.007114274
3.6871650459692253e-08	-0.20910466	0.9776939	-0.019746562	0.075335905	-0.352242	0.0071142605
3.707331587164401e-08	-0.3649402	0.93082154	-0.019746553	0.13148007	-0.33535492	0.0071142567
3.72750880066159e-08	-0.511182	0.85924566	-0.019746084	0.18416783	-0.3095677	0.007114088
3.747644949103142e-08	-0.6436132	0.76509625	-0.019746892	0.23187995	-0.27564764	0.0071143787
3.7680467580168696e-08	-0.760441	0.64910674	-0.019746937	0.27397048	-0.23385917	0.007114395
3.7882261896754504e-08	-0.85572433	0.51705515	-0.019747017	0.308299	-0.18628383	0.0071144244
3.8087227786760516e-08	-0.9292559	0.36890885	-0.019746697	0.33479086	-0.1329099	0.007114309
3.828988945729959e-08	-0.9769645	0.21248673	-0.019746967	0.35197923	-0.07655439	0.0071144057
3.8491702698158604e-08	-0.9985002	0.051063653	-0.019746639	0.3597381	-0.01839713	0.0071142875
3.869254147363592e-08	-0.9936321	-0.11093029	-0.0197465	0.3579842	0.039965786	0.007114237
3.8892986292732825e-08	-0.9627412	-0.26970255	-0.01974639	0.34685487	0.09716801	0.007114198
3.909439649601213e-08	-0.9063236	-0.42212284	-0.019746812	0.32652885	0.15208174	0.00711435
3.9293202285116946e-08	-0.8271386	-0.5616511	-0.019746693	0.2980002	0.20235078	0.0071143075
3.9497224673813967e-08	-0.7237559	-0.6897735	-0.0197466	0.26075363	0.24851052	0.007114274
3.969753642137741e-08	-0.6031437	-0.7973881	-0.019746536	0.21729964	0.2872817	0.007114251
3.9891814819855615e-08	-0.47106975	-0.88187504	-0.019746842	0.16971627	0.31772053	0.007114361
4.009464260846893e-08	-0.3208757	-0.9469155	-0.019746961	0.115604594	0.3411532	0.007114404
4.0297319607834965e-08	-0.16220416	-0.9865596	-0.019746851	0.058438662	0.3554362	0.0071143648
4.049566943466737e-08	-0.0026883448	-0.9998014	-0.019746717	0.0009685526	0.3602069	0.0071143163
4.0696545362450296e-08	0.15891054	-0.98709553	-0.019746622	-0.057252042	0.35562924	0.007114282
4.089774665358579e-08	0.31658122	-0.94835985	-0.01974635	-0.114057384	0.34167358	0.007114184
4.109890869122466e-08	0.4658758	-0.8846298	-0.019747106	-0.16784498	0.31871304	0.007114457
4.129983033489949e-08	0.6027381	-0.7976948	-0.019747298	-0.21715352	0.2873922	0.0071145254
4.1502839067286295e-08	0.7249097	-0.6885607	-0.019746633	-0.2611693	0.24807358	0.0071142856
4.170450712075045e-08	0.8270108	-0.5618391	-0.019746803	-0.29795414	0.2024185	0.0071143475
4.1907931651743455e-08	0.9077971	-0.41894454	-0.0197465	-0.32705975	0.15093666	0.007114237
4.210970386906321e-08	0.96375805	-0.266046	-0.019746348	-0.3472212	0.095850624	0.007114183
4.2309548322071885e-08	0.99399376	-0.10764056	-0.019746441	-0.35811454	0.03878057	0.0071142167
4.251184193377961e-08	0.9982612	0.05554103	-0.019746449	-0.35965198	-0.020010235	0.0071142195
4.27123682894587e-08	0.97622734	0.21584815	-0.01974643	-0.35171366	-0.07776542	0.007114212
4.291311845264305e-08	0.92855483	0.37066987	-0.019746536	-0.33453828	-0.13354436	0.007114251
4.3116211173640025e-08	0.8555275	0.51738065	-0.019746603	-0.3082281	-0.18640107	0.0071142754
4.3314984956389655e-08	0.7617786	0.64753646	-0.019746399	-0.2744524	-0.23329341	0.007114201
4.351397883372852e-08	0.6482855	0.76114136	-0.0197471	-0.23356329	-0.27422282	0.0071144546
4.371688711489461e-08	0.51536053	0.8567459	-0.019746352	-0.18567328	-0.30866706	0.0071141846
4.3918297771919596e-08	0.36974046	0.9289253	-0.019746723	-0.13320953	-0.3346717	0.007114318
4.411903574207608e-08	0.21487942	0.976441	-0.019746669	-0.07741642	-0.35179067	0.007114299
4.432123254026389e-08	0.053201646	0.9983885	-0.019746605	-0.019167405	-0.35969785	0.0071142754
4.452165800155793e-08	-0.108470395	0.9939035	-0.019746512	0.039079543	-0.35808203	0.007114242
4.472273362311802e-08	-0.2678099	0.9632694	-0.019746484	0.09648613	-0.34704518	0.0071142325
4.4925234503369964e-08	-0.42113915	0.9067811	-0.019746304	0.15172735	-0.32669365	0.0071141673
4.5124578726353655e-08	-0.56111014	0.8275056	-0.019746419	0.20215587	-0.29813242	0.0071142092
4.532443493240981e-08	-0.68685836	0.7265231	-0.019746497	0.24746025	-0.2617506	0.0071142367
4.5527540956930226e-08	-0.7963231	0.6045492	-0.019745786	0.28689805	-0.21780604	0.007113981
4.573099359704783e-08	-0.88451946	0.4660853	-0.019746259	0.31867325	-0.16792049	0.0071141515
4.593528234306208e-08	-0.94908166	0.31441078	-0.019746426	0.34193367	-0.11327541	0.007114211
4.613677993240263e-08	-0.9874937	0.15641697	-0.019746605	0.35577267	-0.05635366	0.0071142754
4.633582820477376e-08	-0.9997981	-0.0037366422	-0.019746598	0.3602057	0.0013462317	0.0071142735
4.653705553718125e-08	-0.9860071	-0.16552976	-0.019746492	0.35523707	0.0596368	0.0071142344
4.673803027158282e-08	-0.9462737	-0.32276353	-0.019746602	0.340922	0.11628474	0.0071142744
4.6940980687741205e-08	-0.88088876	-0.47291136	-0.019746566	0.31736523	0.17037977	0.0071142614
4.714110082370286e-08	-0.7932632	-0.60855865	-0.019746343	0.28579563	0.21925053	0.0071141818
4.7342422275403475e-08	-0.68423414	-0.72899497	-0.019747254	0.2465148	0.26264116	0.007114509
4.75494085937115e-08	-0.5533307	-0.83272755	-0.019747257	0.19935313	0.30001378	0.00711451
4.7751906725395085e-08	-0.4102947	-0.91173923	-0.019747173	0.14782032	0.32847998	0.0071144802
4.7955879779464554e-08	-0.25514817	-0.9667004	-0.019747237	0.091924384	0.34828126	0.0071145026
4.815392344304012e-08	-0.097855166	-0.9950048	-0.019746765	0.035255104	0.35847875	0.007114333
4.835454904663399e-08	0.064017855	-0.9977534	-0.019746585	-0.023064252	0.35946903	0.0071142684
4.855570876776663e-08	0.22463202	-0.9742436	-0.01974656	-0.08093007	0.35099897	0.00711426
4.875678300561468e-08	0.37926018	-0.92507935	-0.019746307	-0.13663927	0.3332861	0.0071141687
4.8956837650395496e-08	0.5231983	-0.85198224	-0.019746767	-0.18849707	0.30695084	0.0071143345
4.9159452522094104e-08	0.6550602	-0.7553187	-0.019746346	-0.23600405	0.272125	0.007114182
4.935924384268324e-08	0.7679458	-0.6402104	-0.019746931	-0.2766743	0.23065397	0.0071143936
4.95639911627406e-08	0.862893	-0.5050008	-0.01974721	-0.31088173	0.18194088	0.0071144938
4.9768761588196587e-08	0.93428427	-0.35598192	-0.019747136	-0.33660245	0.1282526	0.007114467
4.9968921591354166e-08	0.9794146	-0.20089124	-0.019746723	-0.35286194	0.07237677	0.007114318
5.016958532137965e-08	0.9989984	-0.040153056	-0.019746631	-0.35991758	0.01446628	0.0071142856
5.037155000615284e-08	0.99224967	0.1226811	-0.019746682	-0.3574861	-0.044199355	0.0071143033
5.05726109452998e-08	0.95934176	0.28155574	-0.01974686	-0.34563017	-0.101438455	0.0071143676
5.077429367216188e-08	0.900952	0.4334694	-0.019746937	-0.32459357	-0.15616968	0.007114395
5.097567957857846e-08	0.8188273	0.5737003	-0.01974608	-0.2950058	-0.20669183	0.0071140868
5.117446204039891e-08	0.7165398	0.6972666	-0.019746788	-0.25815386	-0.2512101	0.007114342
5.137942710174453e-08	0.5917877	0.805852	-0.019746482	-0.21320832	-0.2903311	0.007114232
5.1582195319906236e-08	0.45242646	0.89158314	-0.019746406	-0.16299948	-0.3212182	0.007114204
5.1780069919366725e-08	0.30471703	0.95223826	-0.019746471	-0.10978298	-0.34307092	0.007114227
5.1978921505041075e-08	0.14845374	0.9887222	-0.01974651	-0.053484682	-0.3562153	0.007114242
5.2178078730784846e-08	-0.011880943	0.9997345	-0.019746521	0.004280447	-0.36018276	0.0071142456
5.237815456857022e-08	-0.17264016	0.98478705	-0.019746654	0.06219852	-0.35479754	0.007114293
5.257953000508323e-08	-0.32988843	0.94381344	-0.019746613	0.118851684	-0.34003562	0.007114278
5.2779437422784375e-08	-0.47738186	0.87847406	-0.01974701	0.17199036	-0.31649524	0.0071144216
5.2981566480276586e-08	-0.6138647	0.7891643	-0.019746408	0.2211622	-0.28431886	0.0071142046
5.318374565017743e-08	-0.734037	0.6788224	-0.019746592	0.2644577	-0.24456507	0.0071142707
5.338662862177618e-08	-0.83497655	0.5499311	-0.019746315	0.30082405	-0.19812831	0.007114171
5.358977221114185e-08	-0.913614	0.4061032	-0.01974654	0.3291554	-0.14631023	0.0071142525
5.379098856562489e-08	-0.9673	0.2528655	-0.01974637	0.34849733	-0.09110198	0.0071141915
5.398900137600584e-08	-0.99523026	0.09553497	-0.019746408	0.35855997	-0.034419186	0.0071142046
5.419166777877758e-08	-0.9974909	-0.06798686	-0.019746475	0.3593744	0.024494201	0.007114229
5.439253421550872e-08	-0.97339666	-0.22827421	-0.019746505	0.35069382	0.082242265	0.00711424
5.459295997711141e-08	-0.92385465	-0.38223377	-0.0197465	0.3328449	0.13771057	0.007114237
5.4794470548010384e-08	-0.84967566	-0.52693594	-0.019746616	0.3061198	0.18984365	0.0071142805
5.499852122893411e-08	-0.75167024	-0.6592436	-0.019746566	0.27081057	0.23751122	0.0071142614
5.5197409632139606e-08	-0.63649863	-0.771025	-0.019746957	0.22931671	0.2777837	0.0071144025
5.540295443693964e-08	-0.50027585	-0.8656409	-0.019746887	0.1802386	0.31187174	0.007114377
5.5599249951138396e-08	-0.3572738	-0.9337909	-0.01974688	0.12871803	0.3364247	0.007114374
5.579924612649952e-08	-0.20237693	-0.9791086	-0.019746615	0.07291204	0.3527517	0.007114279
5.599919051896467e-08	-0.04225028	-0.998912	-0.019746494	0.015221865	0.3598864	0.007114236
5.619887151442457e-08	0.11876521	-0.992726	-0.01974653	-0.042788543	0.3576578	0.0071142493
5.640018203897678e-08	0.27796102	-0.9603894	-0.019746622	-0.10014334	0.3460076	0.007114282
5.6601209725425574e-08	0.42961287	-0.9027973	-0.01974653	-0.15478027	0.32525837	0.0071142493
5.68029262847582e-08	0.5704119	-0.8211214	-0.019747216	-0.2055071	0.29583234	0.0071144965
5.700518919877374e-08	0.69641256	-0.71737003	-0.019747652	-0.2509024	0.25845295	0.007114653
5.721049432812976e-08	0.8053128	-0.5925212	-0.019747237	-0.29013684	0.2134726	0.0071145026
5.741220808637141e-08	0.8907863	-0.45399344	-0.019746745	-0.32093108	0.16356404	0.007114326
5.761133726360581e-08	0.95201236	-0.30542216	-0.019746711	-0.34298956	0.110037014	0.0071143145
5.781486893370993e-08	0.9891692	-0.14544582	-0.019746633	-0.35637632	0.05240099	0.0071142856
5.8012923075194195e-08	0.99970657	0.014031773	-0.019746618	-0.36017272	-0.0050553447	0.007114281
5.8213993005026593e-08	0.98427266	0.1755492	-0.019746406	-0.35461223	-0.063246585	0.007114204
5.841527981652575e-08	0.94285864	0.3326075	-0.019746548	-0.33969158	-0.11983131	0.007114255
5.8616575549229347e-08	0.87655586	0.48089513	-0.019746402	-0.31580418	-0.17325613	0.0071142027
5.88169795274856e-08	0.7875612	0.61592	-0.0197461	-0.2837413	-0.2219027	0.007114094
5.9016771701507864e-08	0.6783268	0.7344951	-0.019746022	-0.2443865	-0.26462275	0.007114066
5.9215985168695906e-08	0.5518435	0.83371395	-0.019746166	-0.19881731	-0.30036914	0.007114117
5.9417052984276086e-08	0.4097268	0.9119946	-0.019746358	-0.14761573	-0.32857198	0.0071141864
5.961912185685105e-08	0.2560383	0.966465	-0.019746268	-0.09224507	-0.3481965	0.0071141543
5.981831120358542e-08	0.097855106	0.99500483	-0.019746456	-0.035255082	-0.35847878	0.0071142227
6.00184647985652e-08	-0.06363567	0.9977779	-0.019746535	0.02292656	-0.35947785	0.00711425
6.021903197099558e-08	-0.22379205	0.9744369	-0.019746637	0.08062745	-0.35106856	0.0071142865
6.042096377883284e-08	-0.37910533	0.9251429	-0.019747186	0.13658348	-0.33330902	0.007114485
6.062115741859319e-08	-0.5231557	0.8520084	-0.019747084	0.18848169	-0.30696023	0.0071144486
6.082173647194257e-08	-0.6537804	0.7564267	-0.01974662	0.23554298	-0.27252424	0.0071142814
6.102098721081544e-08	-0.76658094	0.6418441	-0.019746615	0.2761826	-0.2312426	0.007114279