# t (s)	mx ()	my ()	mz ()	B_demagx (T)	B_demagy (T)	B_demagz (T)
0	0.6666667	0.6666667	0.33333334	-0.24018563	-0.24018563	-0.12009282
1.023e-12	0.6761202	0.65774065	0.33202228	-0.24359152	-0.23696974	-0.11962046
2.047e-12	0.6854257	0.6487067	0.33071345	-0.24694408	-0.23371503	-0.119148925
4.095e-12	0.70356303	0.63035333	0.32810646	-0.2534786	-0.2271027	-0.118209675
8.191e-12	0.73793566	0.59259075	0.32293534	-0.2658623	-0.21349767	-0.11634664
1.6383e-11	0.799056	0.51350504	0.31276545	-0.28788263	-0.1850048	-0.11268264
3.2767e-11	0.891271	0.34600174	0.29311922	-0.32110572	-0.12465696	-0.10560453
5.617362968754961e-11	0.958457	0.101257205	0.26665965	-0.34531134	-0.036480784	-0.09607172
8.12116628152643e-11	0.95954627	-0.14651355	0.24042644	-0.34570384	0.052785672	-0.08662045
1.081856385661399e-10	0.89976805	-0.380015	0.21449071	-0.324167	0.13691121	-0.07727638
1.374920260720946e-10	0.78848845	-0.58531666	0.18891938	-0.28407538	0.21087694	-0.06806358
1.6958811427599798e-10	0.6381489	-0.7522808	0.16382837	-0.22991128	0.27103055	-0.05902383
2.0508634742156955e-10	0.4627322	-0.8754801	0.13933231	-0.16671242	0.3154166	-0.050198425
2.447286491669895e-10	0.27675256	-0.95396245	0.11560203	-0.09970798	0.34369206	-0.041648917
2.8938315521477794e-10	0.09423113	-0.9912078	0.09288584	-0.033949442	0.3571108	-0.03346476
3.4021834966966147e-10	-0.07296697	-0.9947724	0.07144035	0.026288426	0.35839498	-0.025738418
3.984780720369947e-10	-0.2150405	-0.9752388	0.051643647	0.07747446	0.35135746	-0.018606093
4.6547950551224126e-10	-0.32522726	-0.9450275	0.033918362	0.11717236	0.340473	-0.012220055
5.421573689313312e-10	-0.39970866	-0.91645116	0.018718623	0.1440064	0.33017755	-0.006743916
6.283682062578748e-10	-0.43775314	-0.89907235	0.0064110323	0.15771303	0.32391638	-0.0023097564
7.228500703919532e-10	-0.4418844	-0.8970672	-0.0029546346	0.15920141	0.32319394	0.0010644911
8.243619426014146e-10	-0.41660127	-0.90903735	-0.009726083	0.15009245	0.32750654	0.003504098
9.32663296367185e-10	-0.36615267	-0.9304426	-0.014453359	0.13191691	0.3352184	0.0052072336
1.0491353589514877e-09	-0.29299954	-0.9559491	-0.017681608	0.1055614	0.34440786	0.006370302
1.1760751613635366e-09	-0.19792955	-0.98001564	-0.019834258	0.071309745	0.35307848	0.007145855
1.3153831378114914e-09	-0.08167178	-0.99643356	-0.021215145	0.029424582	0.3589935	0.007643359
1.4736051793858813e-09	0.058695436	-0.9980318	-0.022077153	-0.0211467	0.35956934	0.007953923
1.6628540680455817e-09	0.22986394	-0.9729606	-0.022591336	-0.08281502	0.35053673	0.008139171
1.6628540680455817e-09	0.22986394	-0.9729606	-0.022591336	-0.08281502	0.35053673	0.008139171
1.8700211950225764e-09	0.41198614	-0.9109038	-0.022844935	-0.14842972	0.328179	0.008230537
2.073448071385418e-09	0.5771581	-0.81630987	-0.022952972	-0.20793761	0.29409885	0.008269461
2.2628772651515433e-09	0.71265537	-0.70113736	-0.022998355	-0.25675434	0.25260466	0.008285811
2.452536141134355e-09	0.8258616	-0.56340295	-0.023018993	-0.2975401	0.20298193	0.008293247
2.6352318261545712e-09	0.91015387	-0.41362998	-0.023028612	-0.32790878	0.14902195	0.008296711
2.8166263607338522e-09	0.9672524	-0.2527693	-0.02303342	-0.34848017	0.09106733	0.008298444
3.000810781857513e-09	0.99637467	-0.08189562	-0.023035724	-0.3589723	0.029505223	0.008299274
3.1842152065596557e-09	0.99561	0.09071969	-0.02303674	-0.35869682	-0.03268435	0.008299641
3.3670765945521398e-09	0.9652957	0.2601416	-0.023037322	-0.3477752	-0.09372342	0.00829985
3.5503387437589227e-09	0.9062108	0.4221982	-0.023037544	-0.3264882	-0.15210891	0.00829993
3.732893292113192e-09	0.8205289	0.57114065	-0.023037814	-0.2956189	-0.20576963	0.008300027
3.9173631760863636e-09	0.70933485	0.704495	-0.023038328	-0.25555804	-0.25381434	0.008300212
4.104224757431577e-09	0.5749006	0.8178988	-0.023038318	-0.2071243	-0.2946713	0.008300209
4.288935704797488e-09	0.42451197	0.90512925	-0.023037778	-0.15294251	-0.32609856	0.008300014
4.473120795253013e-09	0.26176706	0.9648561	-0.023037253	-0.09430902	-0.3476168	0.008299826
4.6563746243061e-09	0.092025205	0.9954902	-0.023037529	-0.033154696	-0.35865366	0.008299924
4.839307339851882e-09	-0.080155164	0.9965162	-0.023037555	0.028878175	-0.35902327	0.008299934
5.021981028544754e-09	-0.24972123	0.9680437	-0.023037402	0.08996917	-0.34876525	0.008299879
5.2045998876461866e-09	-0.41185385	0.9109587	-0.023037773	0.14838207	-0.32819876	0.008300012
5.387141355959006e-09	-0.56175196	0.82698494	-0.023037607	0.20238711	-0.29794484	0.008299952
5.571742509637382e-09	-0.6964514	0.7172342	-0.02303739	0.25091642	-0.25840402	0.008299875
5.755396688752293e-09	-0.80959064	0.58654267	-0.023037812	0.29167804	-0.21131864	0.008300027
5.938224329211383e-09	-0.8981852	0.43901345	-0.023037868	0.32359672	-0.15816706	0.008300047
6.122365099934895e-09	-0.96051085	0.2772872	-0.023037734	0.34605134	-0.099900596	0.008299999
6.307048385522179e-09	-0.99402225	0.10671977	-0.023037788	0.3581248	-0.038448833	0.008300018
6.489743739822359e-09	-0.997606	-0.06520504	-0.023037747	0.35941592	0.023491967	0.008300003
6.672784004352592e-09	-0.97159743	-0.2355163	-0.023037883	0.35004562	0.084851444	0.008300051
6.855663141807967e-09	-0.91679513	-0.39869305	-0.023037491	0.33030152	0.1436405	0.008299911
7.037364259917751e-09	-0.83542424	-0.54912275	-0.02303786	0.30098534	0.19783708	0.008300044
7.22202821831749e-09	-0.727691	-0.6855181	-0.023037633	0.26217136	0.24697739	0.008299962
7.405324090205134e-09	-0.5989967	-0.80042017	-0.023037974	0.21580559	0.28837413	0.008300085
7.58562696658765e-09	-0.45497498	-0.8902063	-0.023038108	0.16391766	0.3207221	0.008300133
7.768182042489483e-09	-0.2958136	-0.95496786	-0.023037892	0.10657525	0.34405428	0.008300056
7.951531155721199e-09	-0.12717313	-0.991613	-0.023037752	0.045817733	0.3572567	0.0083000045
8.133403730145518e-09	0.04386652	-0.9987718	-0.023037693	-0.01580416	0.35983592	0.008299984
8.31656513733767e-09	0.21480599	-0.9763851	-0.023037676	-0.07738997	0.3517705	0.0082999775
8.499659150515719e-09	0.37929752	-0.924988	-0.023037253	-0.13665271	0.3332532	0.008299826
8.682700849552168e-09	0.5324747	-0.84613246	-0.023036972	-0.19183914	0.30484328	0.008299724
8.86527703910764e-09	0.669513	-0.74244314	-0.023037829	-0.24121109	0.2674862	0.0083000325
9.048026208575718e-09	0.78687155	-0.6166867	-0.0230377	-0.28349286	0.2221789	0.008299986
9.228675109052597e-09	0.8799992	-0.47441614	-0.023037462	-0.31704473	0.17092189	0.0082999
9.413610020390693e-09	0.9489478	-0.31459105	-0.023037458	-0.34188542	0.11334038	0.008299898
9.595928457276367e-09	0.98876864	-0.14766821	-0.023037637	-0.356232	0.053201675	0.008299964
9.779739980406466e-09	0.99942166	0.02501293	-0.023037655	-0.36007008	-0.009011619	0.008299969
9.963580836873175e-09	0.9801385	0.1969718	-0.023037583	-0.35312277	-0.070964694	0.008299944
1.0146330641246195e-08	0.9318655	0.36207196	-0.023037767	-0.33573103	-0.13044672	0.00830001
1.0329714906709129e-08	0.8556962	0.51696557	-0.02303795	-0.30828887	-0.18625154	0.008300076
1.0510966873339701e-08	0.7553361	0.65493256	-0.023037987	-0.2721313	-0.23595807	0.00830009
1.069487140755102e-08	0.63104206	0.77540654	-0.023037603	-0.22735085	-0.27936223	0.008299951
1.0877134037856953e-08	0.4891808	0.87187815	-0.02303768	-0.1762413	-0.31411886	0.008299978
1.106303495806636e-08	0.32967958	0.94381183	-0.023037845	-0.11877644	-0.34003505	0.008300038
1.1250352091129612e-08	0.15876211	0.98704815	-0.023037814	-0.05719856	-0.35561216	0.008300027
1.1432729509172284e-08	-0.012437513	0.9996573	-0.023037693	0.0044809678	-0.36015496	0.008299984
1.161555289917005e-08	-0.18368317	0.9827156	-0.023037605	0.066177085	-0.35405123	0.008299952
1.1798600484426226e-08	-0.3496841	0.9365844	-0.023037571	0.12598363	-0.33743113	0.00829994
1.1981103525930557e-08	-0.50485533	0.86289656	-0.023037137	0.18188848	-0.31088302	0.008299784
1.2162458421631551e-08	-0.6442942	0.76443076	-0.023037598	0.23212528	-0.2754079	0.008299949
1.2347527508781547e-08	-0.7671997	0.6409945	-0.023037897	0.2764055	-0.23093647	0.008300057
1.2531989916487426e-08	-0.866529	0.49859476	-0.023037592	0.3121917	-0.17963293	0.008299947
1.2713398391078803e-08	-0.938738	0.34386086	-0.0230379	0.338207	-0.12388565	0.008300059
1.2896924817581815e-08	-0.98391765	0.17713118	-0.023037622	0.3544843	-0.06381654	0.008299958
1.3079402776612034e-08	-0.999716	0.0061026	-0.023037562	0.3601761	-0.0021986351	0.008299936
1.3261946788182624e-08	-0.9859964	-0.16516757	-0.023037596	0.35523325	0.059506312	0.008299949
1.3444957547126017e-08	-0.9430073	-0.33197382	-0.023037488	0.3397452	0.11960301	0.0082999095
1.362651819302215e-08	-0.8726897	-0.48773155	-0.023037529	0.31441128	0.17571914	0.008299924
1.3808252325927356e-08	-0.77676845	-0.62936497	-0.023037761	0.27985287	0.22674662	0.008300008
1.3991340178059076e-08	-0.65714526	-0.7534119	-0.023037467	0.23675527	0.27143806	0.008299902
1.4172203333767891e-08	-0.51978964	-0.8539837	-0.023037521	0.18726897	0.3076719	0.008299923
1.43541576377462e-08	-0.36640546	-0.93017006	-0.023037665	0.13200799	0.3351202	0.008299974
1.4535655387993155e-08	-0.20268698	-0.97897255	-0.023037639	0.07302374	0.35270274	0.008299964
1.4721602330727482e-08	-0.028859975	-0.999318	-0.023037644	0.010397626	0.36003268	0.008299966
1.4903878417004527e-08	0.14242868	-0.98953694	-0.023037635	-0.051313985	0.3565088	0.008299962
1.508709512877248e-08	0.3103644	-0.9503386	-0.023037387	-0.11181759	0.34238648	0.008299874
1.526974366043885e-08	0.46859166	-0.8831145	-0.023037633	-0.16882345	0.3181671	0.008299962
1.5451880824434925e-08	0.6125836	-0.7900701	-0.023037827	-0.22070065	0.28464523	0.0083000325
1.5635923480382362e-08	0.7397711	-0.67246425	-0.023037678	-0.26652357	0.24227436	0.008299978
1.581966625694083e-08	0.84459656	-0.5349075	-0.023037652	-0.3042899	0.19271564	0.008299969
1.6003781049237097e-08	0.9242795	-0.38102058	-0.023037497	-0.33299798	0.13727349	0.008299913
1.6187649588953817e-08	0.9761413	-0.2159113	-0.023037659	-0.3516826	0.077788174	0.008299971
1.6374036995169997e-08	0.9988537	-0.041960064	-0.023037616	-0.35986543	0.015117306	0.008299956
1.6557906811093374e-08	0.9911238	0.13093099	-0.023037592	-0.35708052	-0.047171615	0.008299947
1.6740881770611526e-08	0.95394564	0.29909372	-0.023037603	-0.34368604	-0.10775702	0.008299951
1.6923660375666068e-08	0.8885418	0.45821708	-0.023037763	-0.32012245	-0.16508573	0.008300008
1.7108208159720652e-08	0.7958181	0.6050974	-0.023037583	-0.2867161	-0.21800354	0.008299944
1.7288573677997795e-08	0.68195844	0.73102814	-0.023037283	-0.24569492	-0.26337367	0.008299835
1.7469401653668892e-08	0.54806817	0.83611643	-0.023037562	-0.19745713	-0.30123472	0.008299936
1.765038708587723e-08	0.39815512	0.9170289	-0.023037422	-0.14344668	-0.33038574	0.008299885
1.783478234270719e-08	0.23355791	0.97207	-0.023037612	-0.08414587	-0.35021585	0.008299954
1.8016414500708042e-08	0.06451975	0.99765056	-0.023037648	-0.023245074	-0.35943198	0.008299967
1.820052183702981e-08	-0.108724505	0.99380493	-0.02303765	0.039171092	-0.3580465	0.008299968
1.8383398172578692e-08	-0.2775886	0.9604238	-0.023037875	0.10000919	-0.34601998	0.008300049
1.8567658851827278e-08	-0.439396	0.89799815	-0.023037584	0.1583049	-0.32352936	0.008299945
1.8750938206147484e-08	-0.58722967	0.8090926	-0.023037268	0.2115662	-0.2914986	0.008299831
1.8931419006037062e-08	-0.7157384	0.69798845	-0.023036448	0.2578651	-0.25147018	0.008299535
1.911274666289806e-08	-0.8240315	0.5660755	-0.023036899	0.29688075	-0.2039448	0.008299697
1.929320880780311e-08	-0.9079691	0.41840336	-0.023037368	0.32712168	-0.1507417	0.008299867
1.9477809691481044e-08	-0.96669775	0.25488195	-0.023037426	0.34828037	-0.091828465	0.008299887
1.9661354029145395e-08	-0.9961442	0.08465332	-0.023037577	0.35888928	-0.030498764	0.008299942
1.984261863214009e-08	-0.99603194	-0.08596423	-0.023037584	0.3588488	0.03097106	0.008299945
2.0025726627946567e-08	-0.9664663	-0.25575805	-0.023037646	0.34819698	0.0921441	0.008299967
2.0208302264686965e-08	-0.9083871	-0.41749522	-0.02303791	0.3272723	0.15041453	0.008300062
2.039178495638489e-08	-0.82298154	-0.56760085	-0.023037354	0.2965025	0.20449434	0.008299861
2.057270193414301e-08	-0.71471107	-0.6990405	-0.023037445	0.257495	0.2518492	0.008299895
2.0756832627039143e-08	-0.5832461	-0.8119688	-0.02303779	0.21013099	0.29253483	0.0083000185
2.094181270429594e-08	-0.43352976	-0.9008448	-0.023038222	0.15619141	0.32455495	0.008300174
2.1124221798286124e-08	-0.27299714	-0.96173906	-0.023037747	0.09835498	0.34649384	0.008300003
2.1307179288658238e-08	-0.10389975	-0.9943209	-0.023037586	0.037432835	0.35823238	0.008299945
2.149034153813493e-08	0.06847223	-0.997387	-0.023037616	-0.024669066	0.35933697	0.008299956
2.1673416913285894e-08	0.23872924	-0.9708129	-0.023037722	-0.086008996	0.34976298	0.008299993
2.185681472735227e-08	0.40217197	-0.91527426	-0.023037445	-0.14489388	0.32975358	0.008299895
2.2039565527486613e-08	0.5531154	-0.8327861	-0.02303719	-0.19927555	0.30003482	0.008299802
2.2221514095089215e-08	0.6871341	-0.72616535	-0.023037186	-0.24755958	0.2616217	0.0082998015
2.240261888937764e-08	0.8005134	-0.59887195	-0.023037309	-0.28840768	0.21576065	0.008299845
2.2586552697168128e-08	0.89182603	-0.4517916	-0.023036778	-0.3213057	0.16277076	0.008299654
2.2767886045570868e-08	0.9556789	-0.29350856	-0.02303699	-0.34431046	0.105744794	0.008299731
2.2950445476125816e-08	0.9918232	-0.12552372	-0.023037225	-0.35733247	0.04522349	0.0082998155
2.3132898344292463e-08	0.9986725	0.046071153	-0.023037424	-0.35980016	-0.01659844	0.008299887
2.3316657046144416e-08	0.97578657	0.21750845	-0.023037357	-0.35155487	-0.078363605	0.008299863
2.3499288297595212e-08	0.9241012	0.38145304	-0.023037316	-0.33293372	-0.1374293	0.008299848
2.3681387855324933e-08	0.84536165	0.5336975	-0.02303757	-0.30456555	-0.19227968	0.008299939
2.3864084948419795e-08	0.741395	0.67067343	-0.023037778	-0.26710862	-0.24162915	0.008300014
2.4045715835803647e-08	0.61628366	0.7871873	-0.023037624	-0.2220337	-0.2836066	0.008299958
2.4233151867464912e-08	0.4683248	0.883256	-0.023037449	-0.16872734	-0.31821808	0.0082998965
2.4415833284078308e-08	0.31004593	0.95044243	-0.023037804	-0.11170286	-0.3424239	0.008300023
2.4599743499210375e-08	0.14144847	0.9896776	-0.023037728	-0.05096083	-0.3565595	0.008299996
2.4783550454727064e-08	-0.031292148	0.99924475	-0.023037665	0.011273885	-0.36000633	0.008299974
2.4967104016777954e-08	-0.20286144	0.97893643	-0.023037655	0.0730866	-0.35268965	0.008299969
2.5149965430845025e-08	-0.3677661	0.92963296	-0.023037773	0.13249819	-0.33492672	0.008300012
2.5334587692129824e-08	-0.52318496	0.8519078	-0.02303742	0.18849224	-0.306924	0.008299885
2.5518017124252523e-08	-0.66195405	0.7491904	-0.023037499	0.23848778	-0.26991713	0.008299914
2.570036792224222e-08	-0.78034675	0.6249227	-0.02303753	0.28114212	-0.22514616	0.008299924
2.5882811244072944e-08	-0.875781	0.48215863	-0.023037476	0.315525	-0.17371133	0.008299906
2.606690608905593e-08	-0.9458804	0.3236968	-0.023037432	0.34078032	-0.11662097	0.008299891
2.6249008757477512e-08	-0.9872716	0.15736607	-0.02303753	0.35569263	-0.056695603	0.008299924
2.6431934325161284e-08	-0.9996314	-0.014366489	-0.023037571	0.36014557	0.005175936	0.00829994
2.6615177642345656e-08	-0.9822859	-0.18596719	-0.02303752	0.35389644	0.06699997	0.008299921
2.6797983110708534e-08	-0.9358496	-0.3516459	-0.023037529	0.33716643	0.12669043	0.008299924
2.6979611104920362e-08	-0.8622534	-0.5059529	-0.023037879	0.3106513	0.18228391	0.008300051
2.716396645289486e-08	-0.7617804	-0.6474258	-0.02303765	0.27445304	0.23325351	0.008299968
2.7349035121429578e-08	-0.63784146	-0.7698232	-0.02303744	0.22980052	0.27735066	0.008299893
2.7531515176136272e-08	-0.4966587	-0.86764014	-0.023037374	0.17893542	0.31259203	0.008299869
2.771638818523428e-08	-0.3386969	-0.9406135	-0.023037259	0.12202519	0.3388828	0.008299828
2.789968611968899e-08	-0.17193742	-0.98483855	-0.023037283	0.06194534	0.35481608	0.008299835
2.808169525476871e-08	-0.0012716503	-0.9997338	-0.023037372	0.00045814816	0.36018252	0.008299869
2.826404517203787e-08	0.169749	-0.9852181	-0.023037484	-0.061156902	0.3549528	0.008299909
2.844717646854244e-08	0.3364607	-0.94141567	-0.02303755	-0.12121953	0.33917177	0.008299932
2.863094967293103e-08	0.49369645	-0.8693291	-0.023037495	-0.17786819	0.31320053	0.008299912
2.881557368787173e-08	0.6367708	-0.770709	-0.023037301	-0.22941478	0.2776698	0.0082998425
2.8998464895971154e-08	0.75954574	-0.65004593	-0.023037689	-0.27364793	0.23419753	0.008299982
2.918103933014479e-08	0.8596507	-0.5103626	-0.023038248	-0.30971354	0.18387264	0.008300183
2.936360492593685e-08	0.93435204	-0.35560608	-0.023037715	-0.33662692	0.1281172	0.0082999915
2.9546234334054743e-08	0.98145825	-0.19028677	-0.02303753	-0.35359824	0.06855622	0.008299924
2.9728370908118653e-08	0.9995385	-0.019806813	-0.023037536	-0.36011216	0.0071359677	0.008299926
2.991147296573358e-08	0.9880882	0.15215474	-0.023037521	-0.35598686	-0.05481807	0.008299923
3.009436819206706e-08	0.9473363	0.3194107	-0.023037808	-0.34130484	-0.115076795	0.008300025
3.0278715512422926e-08	0.877841	0.47839785	-0.023037914	-0.31626713	-0.17235644	0.008300064
3.045932249695647e-08	0.78409386	0.6202145	-0.023038054	-0.2824921	-0.22344992	0.008300114
3.064153848253456e-08	0.6665439	0.74510986	-0.023037571	-0.24014136	-0.26844698	0.00829994
3.082366284316484e-08	0.5294522	0.848027	-0.02303722	-0.19075021	-0.30552584	0.008299813
3.100644133518641e-08	0.37622344	0.9262426	-0.023037355	-0.1355452	-0.33370522	0.008299861
3.1187822350569325e-08	0.21313943	0.9767502	-0.023037722	-0.07678953	-0.351902	0.008299993
3.137173053224457e-08	0.04145879	0.99887466	-0.023037694	-0.014936708	-0.359873	0.008299984
3.155510221364573e-08	-0.1309633	0.9911196	-0.023037586	0.047183245	-0.35707903	0.008299945
3.1738077501031176e-08	-0.29912448	0.953936	-0.023037346	0.10776809	-0.34368253	0.008299859
3.191991520388506e-08	-0.4574552	0.88893425	-0.02303747	0.16481122	-0.3202638	0.008299904
3.210339613247363e-08	-0.6036131	0.79694456	-0.023037395	0.21746878	-0.2871219	0.008299876
3.2283968911622706e-08	-0.72989005	0.6831764	-0.023037719	0.26296365	-0.24613373	0.008299993
3.2466607370226844e-08	-0.8361391	0.5480336	-0.023038076	0.30124286	-0.19744468	0.008300122
3.264984819249714e-08	-0.9178911	0.39616337	-0.023037704	0.33069634	-0.1427291	0.008299988
3.283358313364884e-08	-0.97243094	0.23205048	-0.02303785	0.35034585	-0.083602786	0.008300041
3.301827297061254e-08	-0.99792683	0.060095385	-0.023037715	0.35953152	-0.02165107	0.0082999915
3.320341955562662e-08	-0.9932018	-0.1141035	-0.023037707	0.35782918	0.04110903	0.00829999
3.338630770061771e-08	-0.9589038	-0.28279468	-0.023037631	0.34547237	0.10188483	0.008299962
3.356955246022941e-08	-0.89602673	-0.44340217	-0.023037741	0.3228191	0.15974823	0.008300001
3.3753823463205776e-08	-0.8059079	-0.5915926	-0.02303823	0.29035124	0.21313804	0.008300178
3.393722648985074e-08	-0.6921214	-0.7214133	-0.02303825	0.24935642	0.25990963	0.008300184
3.4120034925408504e-08	-0.55816376	-0.829411	-0.023037717	0.20109436	0.2988189	0.008299992
3.430215394249627e-08	-0.4082655	-0.91257256	-0.02303789	0.14708926	0.32878023	0.008300055
3.4486247732303325e-08	-0.2445592	-0.96936065	-0.023037927	0.088109404	0.3492397	0.008300068
3.467053126054366e-08	-0.07332834	-0.99704176	-0.02303775	0.026418619	0.35921264	0.0083000045
3.4854217817563316e-08	0.09954889	-0.994766	-0.023037607	-0.035865314	0.35839272	0.008299952
3.5036735064550154e-08	0.26838705	-0.96303576	-0.023037665	-0.09669407	0.34696102	0.008299974
3.521997527624034e-08	0.42991596	-0.902575	-0.023037782	-0.15488945	0.32517833	0.008300016
3.540380661666328e-08	0.5791024	-0.8149293	-0.023037069	-0.2086381	0.29360145	0.008299759
3.55879525788115e-08	0.7111492	-0.7026637	-0.023037268	-0.25621176	0.25315458	0.008299831
3.5771946743009976e-08	0.821739	-0.5693982	-0.023037039	-0.29605484	0.2051419	0.0082997475
3.595173619433608e-08	0.9060043	-0.4226412	-0.023037257	-0.3264138	0.1522685	0.008299826
3.613337459521557e-08	0.96476835	-0.2620903	-0.02303752	-0.3475852	0.094425485	0.008299921
3.6317104853168186e-08	0.99550086	-0.09190942	-0.02303776	-0.35865748	0.03311298	0.008300008
3.650161667800428e-08	0.99638623	0.08175549	-0.023037631	-0.35897648	-0.02945474	0.008299962
3.6684519738033435e-08	0.967587	0.25148526	-0.023037393	-0.34860075	-0.090604715	0.008299876
3.686744316353106e-08	0.9100876	0.41377515	-0.023037616	-0.3278849	-0.14907426	0.008299956
3.7051151712680694e-08	0.8251763	0.56440526	-0.023038112	-0.29729322	-0.20334303	0.008300135
3.7234770897181475e-08	0.7156398	0.69808954	-0.023037413	-0.2578296	-0.2515066	0.008299883
3.7415624673953816e-08	0.58682746	0.8093843	-0.023038317	-0.21142125	-0.29160368	0.0083002085
3.7600271111257185e-08	0.43778634	0.8987839	-0.023038328	-0.15772498	-0.32381245	0.008300212
3.778276540679308e-08	0.27746457	0.96045965	-0.023037584	-0.0999645	-0.34603292	0.008299945
3.796660764234403e-08	0.107692346	0.99391735	-0.023037652	-0.038799226	-0.35808697	0.008299969
3.8150038156048324e-08	-0.064919464	0.99762464	-0.023037665	0.023389084	-0.35942262	0.008299974
3.833317544116191e-08	-0.23532638	0.9716433	-0.023037553	0.08478302	-0.35006213	0.008299934
3.85158055017544e-08	-0.39829874	0.91696644	-0.023037916	0.14349845	-0.3303632	0.008300064
3.8698880389831094e-08	-0.54984796	0.834947	-0.023038171	0.19809836	-0.30081338	0.008300156
3.8885883400975174e-08	-0.68775207	0.72558	-0.023038013	0.24778223	-0.26141077	0.0083000995
3.906759388785832e-08	-0.8013669	0.5977293	-0.023037598	0.28871524	-0.21534899	0.008299949
3.924840476622348e-08	-0.8911415	0.45314053	-0.023037465	0.32105905	-0.16325676	0.008299902
3.9430447129916084e-08	-0.9554322	0.2943106	-0.023037488	0.3442216	-0.10603376	0.0082999095
3.961457386292306e-08	-0.9919035	0.12488751	-0.023037584	0.35736144	-0.044994272	0.008299945
3.979805303596163e-08	-0.9985971	-0.047679413	-0.023037588	0.35977298	0.017177865	0.008299945
3.998018136536218e-08	-0.97577024	-0.21758157	-0.023037551	0.35154897	0.07838994	0.008299933
4.016324828039468e-08	-0.9239149	-0.38190383	-0.023037609	0.3328666	0.13759172	0.008299954
4.034781166986351e-08	-0.8438573	-0.53607285	-0.023037858	0.30402356	0.1931355	0.008300044
4.053304728814824e-08	-0.7378948	-0.6745225	-0.023037624	0.26584756	0.24301592	0.008299958
4.071416685455347e-08	-0.6125598	-0.7900885	-0.023037804	0.22069207	0.28465182	0.008300023
4.0898662278484573e-08	-0.4666007	-0.88416815	-0.023037342	0.16810617	0.3185467	0.008299857
4.1083040377904614e-08	-0.3066709	-0.95153683	-0.023037525	0.11048691	0.3428182	0.0082999235
4.126691757149531e-08	-0.13796732	-0.99016887	-0.023037473	0.049706645	0.3567365	0.008299904
4.1449438243774716e-08	0.033593107	-0.9991701	-0.02303757	-0.012102872	0.35997945	0.008299939
4.163210530765686e-08	0.20429716	-0.9786378	-0.023037676	-0.07360385	0.35258207	0.0082999775
4.181546490590537e-08	0.36956495	-0.9289194	-0.023037389	-0.13314629	0.33466962	0.008299874
4.199736930174695e-08	0.52265	-0.85223603	-0.023037367	-0.18829952	0.30704224	0.008299867
4.218034606493545e-08	0.66116345	-0.7498881	-0.023037693	-0.23820293	0.2701685	0.008299984
4.236204458606645e-08	0.7793022	-0.6262248	-0.023037335	-0.28076577	0.22561526	0.008299855
4.254398501158675e-08	0.87474465	-0.4840363	-0.023037495	-0.31515163	0.17438784	0.008299912
4.2727649198487243e-08	0.9450516	-0.3261088	-0.023037586	-0.3404817	0.11748997	0.008299945
4.2909545020430695e-08	0.9868359	-0.16007566	-0.023037504	-0.3555357	0.057671808	0.008299915
4.3092609728365794e-08	0.9996656	0.011753154	-0.023037547	-0.36015797	-0.004234408	0.008299932
4.327517891772236e-08	0.982885	0.1827744	-0.023037706	-0.35411227	-0.06584968	0.008299988
4.345856498172145e-08	0.9367957	0.3491176	-0.023037625	-0.33750725	-0.12577954	0.00829996
4.3640922953034086e-08	0.86327016	0.5042162	-0.023037674	-0.31101757	-0.18165821	0.008299977
4.3824219087722255e-08	0.7637273	0.64512795	-0.023037842	-0.27515447	-0.23242567	0.008300037
4.400747635229324e-08	0.6414677	0.7668042	-0.02303772	-0.23110697	-0.276263	0.008299993
4.419047234489415e-08	0.50032586	0.86553067	-0.023037672	-0.1802566	-0.311832	0.008299977
4.4373352441836224e-08	0.34443572	0.9385273	-0.0230375	-0.12409276	-0.33813113	0.008299915
4.4556149737314874e-08	0.17841063	0.9836864	-0.023037907	-0.06427751	-0.354401	0.00830006
4.473993877755637e-08	0.006165027	0.9997156	-0.023037827	-0.002221126	-0.36017597	0.0083000325
4.492288384193516e-08	-0.16548008	0.98594403	-0.023037782	0.059618898	-0.3552144	0.008300016
4.510608509264528e-08	-0.33244306	0.942842	-0.023037452	0.11977208	-0.33968562	0.008299897
4.5290190388427034e-08	-0.49025664	0.87127364	-0.023037527	0.17662889	-0.3139011	0.008299924
4.5473033008853645e-08	-0.63242096	0.7742823	-0.023037333	0.2278476	-0.2789572	0.008299854
4.565779698479079e-08	-0.75702757	0.6529767	-0.023037244	0.2727407	-0.23525342	0.008299822
4.583896322530765e-08	-0.8569863	0.5148241	-0.023037344	0.30875367	-0.18548003	0.008299859
4.602062765282189e-08	-0.9321825	0.36125484	-0.023037445	0.33584523	-0.13015231	0.008299895
4.620223716924475e-08	-0.98009896	0.19716822	-0.023037469	0.35310853	-0.07103546	0.008299903
4.6383972476444e-08	-0.9993647	0.02719735	-0.023037598	0.36004952	-0.009798619	0.008299949
4.65682257648562e-08	-0.9890285	-0.14591785	-0.023037558	0.35632563	0.052571055	0.008299936
4.6750997326487276e-08	-0.9493695	-0.31331596	-0.023037389	0.34203732	0.112880975	0.008299874
4.693360930697871e-08	-0.8816704	-0.47130328	-0.023037443	0.31764686	0.1698004	0.008299893
4.711673734772605e-08	-0.78760946	-0.61574405	-0.023037624	0.2837587	0.22183931	0.008299958
4.730254228715e-08	-0.6682618	-0.7435693	-0.023037711	0.24076033	0.267892	0.00829999
4.748472812202501e-08	-0.5313582	-0.84683406	-0.023037951	0.1914369	0.30509603	0.008300077
4.7666375842635406e-08	-0.37928852	-0.9249917	-0.023037601	0.13664947	0.33325458	0.0082999505
4.7848519549569187e-08	-0.21567094	-0.9761944	-0.023037387	0.07770158	0.35170174	0.008299874
4.8031634211136725e-08	-0.04479648	-0.9987305	-0.023037583	0.016139206	0.35982105	0.008299944
4.821544893960683e-08	0.12806413	-0.99149835	-0.023037637	-0.04613874	0.35721546	0.008299964
4.8398288584060915e-08	0.2962116	-0.95484453	-0.023037268	-0.10671865	0.34400988	0.008299831
4.8582073183631705e-08	0.45637253	-0.88949054	-0.023037512	-0.16442117	0.32046425	0.008299919
4.8765724105801416e-08	0.6027703	-0.79758215	-0.02303737	-0.21716516	0.2873516	0.008299867
4.8945770032055307e-08	0.72882754	-0.6843096	-0.023038162	-0.2625808	0.24654199	0.008300153
4.913015295957051e-08	0.8361897	-0.5479564	-0.023037871	-0.30126107	0.19741689	0.008300049
4.9312436592632106e-08	0.91757	-0.39690632	-0.02303784	-0.3305807	0.14299679	0.008300036
4.9500924517799886e-08	0.9732763	-0.22847876	-0.023037905	-0.35065043	0.08231597	0.00830006
4.968398357128365e-08	0.9980528	-0.057964794	-0.023037817	-0.35957688	0.020883463	0.008300029
4.9867728626287856e-08	0.9931085	0.114912204	-0.023037734	-0.35779554	-0.041400388	0.008299999
5.005050711325727e-08	0.9587025	0.28347653	-0.023037883	-0.34539986	-0.10213048	0.008300051
5.0233267391095195e-08	0.8959132	0.4436317	-0.02303778	-0.32277817	-0.15983093	0.008300016
5.041635650406232e-08	0.8064149	0.5909013	-0.02303768	-0.2905339	-0.21288897	0.008299978
5.059959090819678e-08	0.6928555	0.7207083	-0.023037989	-0.24962088	-0.25965565	0.00830009
5.078211762416537e-08	0.5592281	0.8286936	-0.023038149	-0.20147783	-0.29856044	0.008300148
5.096692170942768e-08	0.40712702	0.91308105	-0.023037419	-0.14667907	-0.3289634	0.008299885
5.1147885058858535e-08	0.24621482	0.9689415	-0.023037147	-0.08870589	-0.34908873	0.008299787
5.132995601351845e-08	0.077114135	0.99675614	-0.023037516	-0.02778256	-0.35910973	0.008299919
5.1514304416083725e-08	-0.096390285	0.995077	-0.02303765	0.03472734	-0.35850477	0.008299968
5.1697138418562887e-08	-0.26561624	0.9638036	-0.023037666	0.09569579	-0.34723765	0.008299975
5.1879733523630953e-08	-0.42676917	0.90406716	-0.023038236	0.15375572	-0.3257159	0.00830018
5.2065691041537485e-08	-0.57789946	0.8157828	-0.02303806	0.2082047	-0.29390895	0.008300116
5.224750383321783e-08	-0.7085652	0.70526916	-0.023037488	0.25528076	-0.2540933	0.0082999095
5.2430530353949476e-08	-0.8191233	0.5731547	-0.023037443	0.29511246	-0.20649526	0.008299893
5.261292640962394e-08	-0.9051064	0.42456058	-0.023037655	0.32609034	-0.15296	0.008299969
5.27934462554203e-08	-0.96393174	0.26515108	-0.023037167	0.34728378	-0.095528215	0.008299794
5.2974326164661736e-08	-0.9949449	0.097745225	-0.023037486	0.35845718	-0.035215497	0.0082999095
5.315721745827373e-08	-0.9969634	-0.07438736	-0.023037573	0.35918438	0.02680016	0.008299941
5.334075259765841e-08	-0.96927387	-0.24490291	-0.023037376	0.34920847	0.08823323	0.0082998695
5.352389614444147e-08	-0.91279465	-0.4077687	-0.023037666	0.32886022	0.14691025	0.008299975
5.37076696709479e-08	-0.8288441	-0.5590052	-0.023038017	0.29861462	0.20139751	0.0083000995
5.3890045821804236e-08	-0.72099257	-0.69255966	-0.023038127	0.25975806	0.2495143	0.0083001405
5.407191217698252e-08	-0.59226984	-0.8054102	-0.023038188	0.21338204	0.29017192	0.008300161
5.425712262695665e-08	-0.4433593	-0.89604795	-0.02303764	0.15973279	0.32282674	0.008299965
5.4439212053622126e-08	-0.28379253	-0.95860904	-0.023037493	0.102244325	0.34536618	0.008299911
5.462259903564326e-08	-0.114671536	-0.99313635	-0.023037512	0.041313678	0.3578056	0.008299919
5.480481627321369e-08	0.056767587	-0.9981217	-0.02303756	-0.020452134	0.3596017	0.008299936
5.4987644606668616e-08	0.22709744	-0.97359955	-0.023037761	-0.08181831	0.3507669	0.008300008
5.517093249831594e-08	0.39109755	-0.920061	-0.023037592	-0.14090401	0.33147812	0.008299947
5.535320478753971e-08	0.54264736	-0.83964473	-0.02303783	-0.19550413	0.30250585	0.008300033
5.553633637227644e-08	0.6788114	-0.73395133	-0.023037566	-0.24456109	0.26442683	0.0082999375
5.571842402204949e-08	0.7941984	-0.6072217	-0.023037381	-0.28613257	0.21876886	0.00829987
5.590079610926852e-08	0.8863673	-0.46240932	-0.023037435	-0.31933904	0.16659608	0.008299891
5.608183379645304e-08	0.95202184	-0.30516177	-0.02303732	-0.3429929	0.1099432	0.00829985