# t (s)	mx ()	my ()	mz ()	B_demagx (T)	B_demagy (T)	B_demagz (T)
0	0.6666667	0.6666667	0.33333334	-0.24018563	-0.24018563	-0.12009282
1.023e-12	0.67614615	0.65779346	0.33186477	-0.24360085	-0.2369888	-0.11956372
2.047e-12	0.68547434	0.64881575	0.33039856	-0.24696161	-0.23375432	-0.11903547
4.095e-12	0.70364785	0.63058555	0.32747757	-0.2535091	-0.22718637	-0.1179831
8.191e-12	0.73806065	0.5931167	0.3216818	-0.26590735	-0.21368715	-0.11589501
1.6383e-11	0.79916936	0.5148369	0.31027636	-0.28792346	-0.18548463	-0.111785874
3.2767e-11	0.89131576	0.3499788	0.28822052	-0.32112184	-0.12608981	-0.103839636
5.6367636233196755e-11	0.9598417	0.109614305	0.25824147	-0.3458103	-0.039491672	-0.09303883
8.178723338580599e-11	0.96460485	-0.13194464	0.22831604	-0.3475263	0.04753681	-0.082257345
1.0950469677112517e-10	0.91217196	-0.3585691	0.19842024	-0.32863587	0.12918471	-0.07148653
1.4006119212042203e-10	0.8131917	-0.55703163	0.16862713	-0.29297543	0.20068648	-0.060752716
1.741420010118654e-10	0.68160474	-0.7183854	0.13905936	-0.2455675	0.25881878	-0.050100088
2.1273099392202938e-10	0.53315383	-0.8388587	0.10983158	-0.19208382	0.3022227	-0.039569944
2.5711972774524164e-10	0.38478482	-0.91943115	0.08116132	-0.13862967	0.3312512	-0.029240672
3.0892615183605594e-10	0.25426927	-0.9656555	0.053447563	-0.091607735	0.34790483	-0.019256003
3.7007124845607197e-10	0.15964146	-0.9867971	0.027315494	-0.057515375	0.35552168	-0.009841183
4.417033258967421e-10	0.11842077	-0.9929561	0.0038607607	-0.04266445	0.35774067	-0.0013909487
5.217692811718261e-10	0.14082225	-0.98991454	-0.015441359	-0.05073522	0.35664487	0.0055631883
6.054530765631429e-10	0.21991035	-0.9750612	-0.029920977	-0.07922897	0.3512935	0.010779882
6.908676240416277e-10	0.3396478	-0.9396842	-0.040411375	-0.12236778	0.33854795	0.014559347
7.797568282226597e-10	0.48707032	-0.8720381	-0.048082642	-0.17548096	0.3141765	0.017323138
8.755053096242741e-10	0.65104103	-0.7571354	-0.053773887	-0.23455605	0.27277955	0.01937357
9.859852814129247e-10	0.82023716	-0.5690643	-0.058110125	-0.29551375	0.20502159	0.020935822
9.859852814129247e-10	0.82023716	-0.5690643	-0.058110125	-0.29551375	0.20502159	0.020935822
1.0942840322454467e-09	0.94025236	-0.33499846	-0.06084102	-0.33875266	0.120692715	0.021919709
1.2028993243879885e-09	0.9957673	-0.067288294	-0.06260862	-0.35875344	0.024242522	0.022556538
1.3010963689278159e-09	0.9806753	0.18499647	-0.063659675	-0.35331613	-0.06665024	0.022935208
1.3952496361683846e-09	0.9057571	0.41888446	-0.064342745	-0.32632476	-0.15091503	0.0231813
1.4872605861321734e-09	0.7782021	0.62466174	-0.06480128	-0.28036943	-0.22505215	0.023346504
1.5780012496081514e-09	0.606409	0.79248244	-0.06511366	-0.21847609	-0.2855143	0.023459047
1.6678600206599943e-09	0.4007782	0.913843	-0.065328896	-0.14439175	-0.3292379	0.023536593
1.7570520996343865e-09	0.17331696	0.9826871	-0.065477684	-0.06244236	-0.35404098	0.023590196
1.8458976478360875e-09	-0.06349418	0.9958251	-0.0655812	0.022875583	-0.3587743	0.023627494
1.9345164569895812e-09	-0.29643375	0.95279425	-0.06565346	0.10679868	-0.3432712	0.023653526
2.0229597861648953e-09	-0.5124488	0.8562005	-0.06570368	0.18462422	-0.30847055	0.02367162
2.1112803481730367e-09	-0.6995187	0.7115841	-0.06573916	0.2520215	-0.2563684	0.023684403
2.1995563718479086e-09	-0.8473023	0.52702355	-0.06576392	0.3052647	-0.18987522	0.023693321
2.287792443399771e-09	-0.94750357	0.3129053	-0.065781154	0.34136507	-0.11273303	0.02369953
2.375926369851197e-09	-0.99450386	0.081446365	-0.065793246	0.3582983	-0.029343368	0.023703888
2.464072933782249e-09	-0.9857764	-0.1546447	-0.065801665	0.35515398	0.055715144	0.02370692
2.5521898262668834e-09	-0.9218096	-0.3820163	-0.06580761	0.3321081	0.13763222	0.023709059
2.6402717563163786e-09	-0.80623686	-0.5879209	-0.06581177	0.29046974	0.21181524	0.02371056
2.7283349852571634e-09	-0.64554673	-0.76087964	-0.06581481	0.23257656	0.27412856	0.023711655
2.8164374824697717e-09	-0.44861802	-0.89129686	-0.065816365	0.16162738	0.32111505	0.023712214
2.9042628399376098e-09	-0.2272727	-0.9716044	-0.0658178	0.08188145	0.35004812	0.023712736
2.992216463942592e-09	0.0070772576	-0.99780655	-0.06581889	-0.0025497833	0.3594882	0.023713127
3.0802760579668784e-09	0.2413115	-0.96821314	-0.06581968	-0.08693933	0.3488263	0.02371341
3.168325192614871e-09	0.4620131	-0.88442737	-0.065820105	-0.16645333	0.31864008	0.023713563
3.256241737175304e-09	0.65658796	-0.75137216	-0.0658205	-0.23655447	0.2707032	0.023713706
3.344272221779495e-09	0.8146994	-0.576136	-0.06582083	-0.2935186	0.20756936	0.023713825
3.4324409518747214e-09	0.9273667	-0.36831886	-0.06582112	-0.33411026	0.13269734	0.02371393
3.52048530435146e-09	0.9879387	-0.14016022	-0.065821275	-0.355933	0.050496705	0.023713984
3.6084762676833004e-09	0.99323165	0.0957005	-0.06582134	-0.35783994	-0.034478825	0.02371401
3.6965060140263057e-09	0.94296825	0.3263105	-0.06582162	-0.33973113	-0.11756262	0.023714108
3.7845893382327654e-09	0.83986807	0.5387849	-0.065821484	-0.30258635	-0.19411258	0.023714062
3.872534374801202e-09	0.6899896	0.7208203	-0.065820895	-0.24858837	-0.259696	0.023713848
3.960349787182937e-09	0.50188243	0.86242783	-0.06582122	-0.18081741	-0.31071413	0.023713969
4.04846690193861e-09	0.28505376	0.95624894	-0.06582122	-0.10269871	-0.34451586	0.023713969
4.136446855577304e-09	0.0526128	0.99644345	-0.06582135	-0.018955257	-0.3589971	0.023714012
4.224434706171534e-09	-0.18278971	0.9809463	-0.06582147	0.06585519	-0.35341376	0.023714056
4.312469402564043e-09	-0.40809008	0.91056573	-0.065821454	0.14702606	-0.3280572	0.023714047
4.400450772504989e-09	-0.61044174	0.78932154	-0.065821454	0.21992898	-0.28437552	0.023714047
4.488493066512198e-09	-0.7787794	0.62383515	-0.06582135	0.28057742	-0.22475433	0.023714012
4.576455338443441e-09	-0.9034406	0.42363048	-0.065821365	0.32549012	-0.1526249	0.023714017
4.664554006103236e-09	-0.977705	0.19940065	-0.0658214	0.35224605	-0.07183975	0.02371403
4.752555548044759e-09	-0.9971912	-0.035741992	-0.06582137	0.35926646	0.012877069	0.02371402
4.840612192697479e-09	-0.96088046	-0.26902878	-0.065821536	0.34618452	0.09692526	0.023714079
4.928666523309555e-09	-0.87077886	-0.4872491	-0.065821454	0.31372285	0.17554533	0.023714047
5.016774436688006e-09	-0.73183256	-0.6782985	-0.06582149	0.2636635	0.2443763	0.023714064
5.104725441638203e-09	-0.55221885	-0.83109677	-0.06582166	0.19895254	0.2994262	0.023714125
5.1930349317708204e-09	-0.34085798	-0.9378078	-0.06582142	0.12280378	0.3378719	0.023714036
5.2811149535498056e-09	-0.11091847	-0.9916475	-0.06582157	0.03996153	0.35726917	0.023714093
5.369203445652062e-09	0.12525673	-0.9899385	-0.065821566	-0.0451273	0.35665348	0.023714092
5.457281881136352e-09	0.3543891	-0.93277854	-0.06582151	-0.12767875	0.33606	0.023714073
5.545301304639553e-09	0.5635409	-0.82346183	-0.06582168	-0.20303163	0.2966755	0.023714129
5.633304040895387e-09	0.7411398	-0.66811633	-0.06582146	-0.26701668	0.2407079	0.023714054
5.7213657543170245e-09	0.87737244	-0.47527397	-0.06582129	-0.31609833	0.17123097	0.023713991
5.809374224502402e-09	0.9644441	-0.25595936	-0.065821335	-0.34746838	0.09221664	0.023714006
5.897381847099365e-09	0.99758154	-0.022333007	-0.065821365	-0.35940707	0.0080461	0.023714017
5.985473268513233e-09	0.97488457	0.21276234	-0.06582138	-0.3512299	-0.07665368	0.023714025
6.0734737168079424e-09	0.8976737	0.43571725	-0.0658214	-0.32341248	-0.15697953	0.02371403
6.161501220994851e-09	0.7702255	0.634366	-0.065821335	-0.27749562	-0.22854838	0.023714006
6.24951329354293e-09	0.5997187	0.79749924	-0.06582148	-0.2160657	-0.28732178	0.023714058
6.337539545259858e-09	0.39563578	0.9160458	-0.0658215	-0.14253904	-0.3300315	0.023714066
6.425602770150209e-09	0.16932102	0.9833606	-0.06582147	-0.06100271	-0.35428357	0.023714056
6.513606640843647e-09	-0.06631523	0.9956254	-0.065821454	0.023891948	-0.35870233	0.023714047
6.601683830994975e-09	-0.29843128	0.9521588	-0.065821506	0.10751835	-0.34304225	0.02371407
6.689781599565659e-09	-0.5138801	0.85533315	-0.06582173	0.1851399	-0.30815807	0.023714148
6.777823864696485e-09	-0.700427	0.71068245	-0.06582159	0.25234875	-0.25604355	0.0237141
6.8658405598036045e-09	-0.8477371	0.5263168	-0.06582129	0.3054214	-0.18962058	0.023713991
6.953780266203214e-09	-0.9475655	0.31270933	-0.06582123	0.3413874	-0.11266242	0.023713969
7.041778155568968e-09	-0.9944987	0.08148615	-0.06582126	0.3582964	-0.029357702	0.02371398
7.129787346809949e-09	-0.9858256	-0.15432319	-0.065821365	0.35517168	0.055599317	0.023714017
7.217862710864138e-09	-0.92195344	-0.38166684	-0.06582141	0.33215994	0.13750634	0.023714034
7.305892564289213e-09	-0.80651706	-0.58753544	-0.06582137	0.2905707	0.21167634	0.02371402
7.393902219177884e-09	-0.64599717	-0.7604967	-0.0658217	0.23273882	0.27399057	0.023714138
7.482039887209276e-09	-0.44904283	-0.8910825	-0.06582165	0.16178045	0.32103783	0.023714121
7.570011389230308e-09	-0.22733822	-0.97158885	-0.06582144	0.08190505	0.35004252	0.023714043
7.658043071058468e-09	0.0072304658	-0.9978053	-0.065821394	-0.002604981	0.35948774	0.023714028
7.746104072592615e-09	0.24147102	-0.9681732	-0.065821424	-0.0869968	0.34881192	0.02371404
7.834148180076142e-09	0.46215156	-0.8843549	-0.06582128	-0.16650322	0.31861395	0.02371399
7.922073922373912e-09	0.65672666	-0.7512508	-0.065821305	-0.23660444	0.27065945	0.023713995
8.010169947168413e-09	0.81490886	-0.57583964	-0.0658214	-0.29359406	0.20746261	0.02371403
8.098267137622467e-09	0.9274303	-0.36815843	-0.06582173	-0.3341331	0.13263953	0.023714148
8.186354650538388e-09	0.98797935	-0.13987261	-0.06582161	-0.3559476	0.050393082	0.023714107
8.274327493407424e-09	0.9932083	0.09594217	-0.06582152	-0.35783154	-0.034565896	0.023714073
8.362391104745866e-09	0.9428589	0.3266262	-0.065821506	-0.3396917	-0.11767638	0.02371407
8.450472752302592e-09	0.83968997	0.5390624	-0.065821715	-0.30252218	-0.19421256	0.023714144
8.538706907487843e-09	0.6891887	0.72158605	-0.0658216	-0.2482998	-0.25997186	0.023714103
8.626856094473786e-09	0.5001463	0.86343575	-0.06582171	-0.18019193	-0.31107724	0.02371414
8.714974354750824e-09	0.283125	0.95682174	-0.06582143	-0.102003835	-0.34472224	0.02371404
8.803017915760056e-09	0.050432336	0.99655616	-0.065821365	-0.018169682	-0.35903767	0.023714017
8.891054602260594e-09	-0.18506475	0.98051965	-0.06582145	0.06667483	-0.3532601	0.023714047
8.979091820888274e-09	-0.41020748	0.90961385	-0.065821566	0.14778891	-0.32771423	0.023714092
9.067225398045804e-09	-0.6126	0.78764766	-0.065821536	0.22070658	-0.28377247	0.023714079
9.155126549192092e-09	-0.7802477	0.6219978	-0.06582128	0.2811064	-0.2240924	0.02371399
9.243209262751517e-09	-0.9045732	0.42120662	-0.065821335	0.32589817	-0.15175167	0.023714006
9.331301616310345e-09	-0.9782328	0.1967952	-0.06582133	0.35243618	-0.070901066	0.023714002
9.419421979802558e-09	-0.9970801	-0.03871759	-0.065821394	0.35922644	0.013949111	0.023714028
9.507511169223972e-09	-0.96004945	-0.27197915	-0.06582138	0.3458851	0.09798822	0.023714025
9.595536434148088e-09	-0.8693165	-0.4898536	-0.065821424	0.313196	0.17648369	0.02371404
9.68365061910434e-09	-0.7297876	-0.68049806	-0.065821275	0.26292676	0.24516878	0.023713984
9.771672953098685e-09	-0.5495551	-0.8328605	-0.06582153	0.19799285	0.30006167	0.023714077
9.859788526452257e-09	-0.33834454	-0.93871754	-0.06582133	0.12189825	0.33819968	0.023714002
9.947746712199244e-09	-0.10858782	-0.9919054	-0.06582134	0.039121848	0.35736215	0.02371401
1.0035861121282634e-08	0.12765105	-0.9896327	-0.065821365	-0.045989923	0.3565433	0.023714017
1.0123894984146438e-08	0.35653192	-0.9319617	-0.06582127	-0.12845075	0.33576572	0.023713982
1.0211900761276308e-08	0.56540096	-0.82218575	-0.0658214	-0.20370176	0.29621577	0.02371403
1.0299938845840478e-08	0.7427111	-0.6663692	-0.06582131	-0.2675828	0.24007845	0.023713998
1.0388008552384815e-08	0.8784994	-0.4731876	-0.065821245	-0.3165044	0.1704793	0.023713974
1.0476059302972486e-08	0.96507853	-0.25355685	-0.065821365	-0.34769696	0.09135106	0.023714017
1.0564134340238321e-08	0.9976376	-0.019667663	-0.0658213	-0.35942733	0.007085834	0.023713995
1.0652119081187592e-08	0.97437453	0.21508603	-0.06582121	-0.35104614	-0.07749085	0.023713961
1.0740177205548866e-08	0.8965645	0.43799505	-0.06582126	-0.32301286	-0.15780017	0.02371398
1.082825831915024e-08	0.7685204	0.6364308	-0.06582141	-0.27688134	-0.22929229	0.023714034
1.0916371545925879e-08	0.5973587	0.7992686	-0.06582139	-0.21521544	-0.28795922	0.023714026
1.1004491043480224e-08	0.39269596	0.9173099	-0.065821394	-0.14147988	-0.33048695	0.023714028
1.1092488489891854e-08	0.16634126	0.983869	-0.06582131	-0.059929166	-0.35446674	0.023713998
1.1180511794055418e-08	-0.06938268	0.9954163	-0.06582135	0.024997082	-0.35862702	0.023714012
1.1268578213166127e-08	-0.30133596	0.9512436	-0.0658214	0.10856485	-0.34271252	0.02371403
1.1356652154301491e-08	-0.516433	0.8537943	-0.065821506	0.18605967	-0.30760366	0.02371407
1.1444645686519418e-08	-0.7024534	0.7086796	-0.0658215	0.2530788	-0.25532198	0.023714066
1.1532684117609611e-08	-0.84926736	0.52384406	-0.06582157	0.30597273	-0.1887297	0.023714093
1.1620926712654027e-08	-0.9487257	0.30917174	-0.065821834	0.3418054	-0.1113879	0.023714188
1.1709064944019462e-08	-0.9948253	0.07739711	-0.06582167	0.35841405	-0.02788451	0.023714129
1.1797096336914922e-08	-0.98517317	-0.1584347	-0.06582164	0.3549366	0.057080604	0.023714114
1.1885141631776056e-08	-0.920384	-0.38543606	-0.06582163	0.33159447	0.13886428	0.023714114
1.197312900032451e-08	-0.80417335	-0.5907392	-0.06582171	0.28972632	0.21283059	0.02371414
1.206128245026613e-08	-0.6426707	-0.76330996	-0.06582167	0.2315404	0.2750041	0.023714129
1.2149402585315747e-08	-0.4451904	-0.89301354	-0.065821454	0.1603925	0.32173353	0.023714047
1.2237468801667799e-08	-0.22289275	-0.9726184	-0.06582137	0.080303445	0.3504134	0.02371402
1.23254511458258e-08	0.011660715	-0.9977634	-0.0658214	-0.004201104	0.35947263	0.02371403
1.2413485920424846e-08	0.245699	-0.96710896	-0.065821365	-0.08852005	0.3484285	0.023714017
1.2501505909953545e-08	0.46595395	-0.8823573	-0.06582147	-0.16787314	0.31789428	0.023714056
1.2589596549233189e-08	0.6602875	-0.74812305	-0.065821536	-0.23788732	0.2695326	0.023714079
1.2677615171383769e-08	0.81751585	-0.5721324	-0.06582156	-0.29453334	0.20612696	0.023714088
1.276572649516503e-08	0.9291067	-0.3639071	-0.06582148	-0.33473706	0.13110787	0.023714058
1.2853682865390757e-08	0.98856163	-0.13569607	-0.06582154	-0.35615742	0.048888367	0.02371408
1.2941762334346855e-08	0.9927652	0.10042368	-0.06582154	-0.35767186	-0.036180485	0.02371408
1.3029824005689436e-08	0.94137686	0.33087325	-0.06582157	-0.33915776	-0.11920649	0.023714093
1.3117882206180326e-08	0.8372856	0.5427896	-0.06582173	-0.30165595	-0.19555537	0.023714148
1.3206057786768142e-08	0.6860884	0.7245346	-0.06582185	-0.24718285	-0.2610342	0.023714192
1.3294172068377191e-08	0.49652055	0.86552584	-0.065821625	-0.17888564	-0.31183028	0.02371411
1.3382188870861058e-08	0.27937114	0.9579246	-0.0658216	-0.10065138	-0.34511954	0.023714103
1.3470256258454782e-08	0.04645995	0.9967492	-0.06582146	-0.01673852	-0.35910726	0.023714054
1.3558283542287181e-08	-0.18894678	0.97977895	-0.065821454	0.06807345	-0.35299322	0.023714047
1.3646325535225855e-08	-0.41381866	0.9079767	-0.0658213	0.14908993	-0.32712442	0.023713995
1.3734373790790092e-08	-0.6155437	0.78534937	-0.065821394	0.22176711	-0.28294444	0.023714028
1.3822295439182255e-08	-0.7826041	0.61903024	-0.06582156	0.28195536	-0.22302324	0.023714088
1.3910529888319793e-08	-0.90633714	0.41739732	-0.06582139	0.32653368	-0.15037924	0.023714026
1.399852807728031e-08	-0.97900313	0.19292645	-0.06582131	0.3527137	-0.069507234	0.023713998
1.4086547456496727e-08	-0.9969308	-0.0423876	-0.06582132	0.35917264	0.015271338	0.023714002
1.4174563890352412e-08	-0.9590959	-0.27532306	-0.06582117	0.34554154	0.09919296	0.023713946
1.4262565852620008e-08	-0.8676355	-0.49282473	-0.065821156	0.3125903	0.17755412	0.023713943
1.435062930784804e-08	-0.7275491	-0.68289083	-0.065820985	0.26212025	0.24603084	0.02371388
1.4438674269253498e-08	-0.5467673	-0.83469355	-0.06582141	0.19698845	0.3007221	0.023714034
1.4526751938840011e-08	-0.33530053	-0.93980914	-0.06582105	0.12080155	0.33859295	0.023713905
1.4614584883883263e-08	-0.10570817	-0.9922164	-0.06582113	0.038084373	0.35747418	0.023713935
1.4702630394539532e-08	0.13033892	-0.98928225	-0.06582119	-0.046958305	0.35641706	0.023713958
1.4790702966799564e-08	0.3591591	-0.93095237	-0.06582128	-0.12939729	0.335402	0.02371399
1.4878749002691528e-08	0.56780666	-0.8205262	-0.06582138	-0.2045685	0.29561788	0.023714025
1.496677498651444e-08	0.7446383	-0.6642149	-0.06582152	-0.2682771	0.2393023	0.023714073
1.5054915258199218e-08	0.8799561	-0.47047302	-0.06582147	-0.3170292	0.16950127	0.023714056
1.5142951658462164e-08	0.96584725	-0.2506128	-0.065821454	-0.34797394	0.09029038	0.023714047
1.523100645334012e-08	0.997692	-0.0166792	-0.06582148	-0.35944688	0.006009156	0.023714058
1.5318980466868053e-08	0.97373205	0.2179763	-0.06582141	-0.35081464	-0.07853216	0.023714034
1.5407009395309628e-08	0.8952951	0.44058394	-0.06582171	-0.32255548	-0.15873289	0.02371414
1.5495177862914885e-08	0.7665275	0.6388297	-0.065821394	-0.2761633	-0.23015657	0.023714028
1.558308456143608e-08	0.59530336	0.8008005	-0.06582104	-0.21447496	-0.28851116	0.0237139
1.5671045108537058e-08	0.39073238	0.9181481	-0.065821186	-0.14077245	-0.3307889	0.023713954
1.5758989679930134e-08	0.16437635	0.9841992	-0.06582127	-0.059221253	-0.35458577	0.023713982
1.584703458787372e-08	-0.07142801	0.9952716	-0.06582132	0.02573397	-0.3585749	0.023714002
1.5935138392737005e-08	-0.30338547	0.9505919	-0.06582134	0.10930324	-0.34247774	0.02371401
1.6023167933081917e-08	-0.51816976	0.85274136	-0.06582159	0.1866854	-0.30722433	0.0237141
1.6111206675947632e-08	-0.7039805	0.7071627	-0.06582149	0.25362897	-0.25477546	0.023714064
1.619920683491373e-08	-0.8503413	0.5220989	-0.06582141	0.30635965	-0.18810096	0.023714034
1.6287174778260818e-08	-0.94913083	0.3079258	-0.065821305	0.34195137	-0.11093901	0.023713995
1.6375076897295817e-08	-0.99487734	0.07672502	-0.06582132	0.35843286	-0.027642371	0.023714002
1.6463120117428173e-08	-0.98506105	-0.15913044	-0.065821305	0.35489625	0.057331264	0.023713995
1.6551161768842567e-08	-0.9201157	-0.38607597	-0.06582135	0.33149785	0.13909484	0.023714012
1.663923127747905e-08	-0.8036321	-0.5914754	-0.0658215	0.2895313	0.21309584	0.023714066
1.6727339670929325e-08	-0.64206433	-0.76382005	-0.065821715	0.23132193	0.2751879	0.023714144
1.6815390862240157e-08	-0.44464654	-0.89328444	-0.06582181	0.16019657	0.3218311	0.023714177
1.6903385044054253e-08	-0.22248764	-0.9727111	-0.065821715	0.0801575	0.35044688	0.023714144
1.6991530491344175e-08	0.012515606	-0.99775296	-0.065821625	-0.004509103	0.35946888	0.02371411
1.7079532587013666e-08	0.24644318	-0.96691954	-0.06582158	-0.08878817	0.34836027	0.023714095
1.7167555616734412e-08	0.46664053	-0.8819945	-0.065821625	-0.1681205	0.3177636	0.02371411
1.725566447953038e-08	0.6609062	-0.74757653	-0.065821275	-0.23811024	0.2693357	0.023713984
1.7343720456372756e-08	0.8180461	-0.571374	-0.065821245	-0.29472438	0.2058537	0.023713974
1.743180870689024e-08	0.9294209	-0.36310378	-0.06582137	-0.3348503	0.13081846	0.02371402
1.751976883078301e-08	0.98867995	-0.13483179	-0.06582152	-0.35620007	0.04857698	0.023714073
1.7607911194547566e-08	0.9926598	0.10145958	-0.065821454	-0.3576339	-0.036553696	0.023714047
1.7695929652079158e-08	0.9410697	0.33174583	-0.0658217	-0.33904713	-0.11952087	0.023714138
1.7784009590233686e-08	0.83674985	0.5436149	-0.06582197	-0.3014629	-0.19585273	0.023714233
1.7872030976929876e-08	0.68567455	0.72492623	-0.065821625	-0.24703375	-0.26117527	0.02371411
1.7959933347575187e-08	0.4965206	0.86552584	-0.06582171	-0.17888565	-0.31183028	0.02371414
1.804806257369931e-08	0.27908078	0.9580091	-0.06582177	-0.10054678	-0.34515	0.023714162
1.813611444174868e-08	0.046198636	0.9967614	-0.06582176	-0.016644374	-0.3591116	0.02371416
1.8224172485663953e-08	-0.18928565	0.9797135	-0.06582163	0.06819554	-0.35296965	0.023714114
1.8312207527322755e-08	-0.4141158	0.90784127	-0.06582145	0.14919698	-0.3270756	0.023714047
1.8400205242208984e-08	-0.6156939	0.78523153	-0.06582121	0.22182125	-0.282902	0.023713961
1.8488195796753762e-08	-0.78283703	0.6187356	-0.065821305	0.28203934	-0.22291708	0.023713995
1.857619691571289e-08	-0.90623134	0.41762698	-0.06582103	0.3264956	-0.150462	0.023713898
1.8664073422361992e-08	-0.97889066	0.1934964	-0.06582107	0.35267317	-0.06971258	0.02371391
1.875204950527419e-08	-0.9969602	-0.041690256	-0.06582119	0.35918325	0.0150201	0.023713958
1.884010886452518e-08	-0.95925653	-0.2747627	-0.06582116	0.3455994	0.09899107	0.023713946
1.8928139382694694e-08	-0.86788553	-0.49238437	-0.06582114	0.31268042	0.17739546	0.023713937
1.9016039625798594e-08	-0.72819567	-0.68220145	-0.06582114	0.26235318	0.24578246	0.023713937
1.9104061073784567e-08	-0.5476109	-0.83414024	-0.06582093	0.19729239	0.30052274	0.023713863
1.919204339625397e-08	-0.33649263	-0.939383	-0.06582107	0.12123102	0.3384394	0.02371391
1.928017195671854e-08	-0.10617691	-0.99216634	-0.06582116	0.03825325	0.35745615	0.023713946
1.9368185446052686e-08	0.1297863	-0.9893549	-0.0658213	-0.046759203	0.35644323	0.023713995
1.9456225117950342e-08	0.35855666	-0.93118453	-0.06582131	-0.12918022	0.3354857	0.023713998
1.9544305884053807e-08	0.56735253	-0.82084024	-0.0658213	-0.20440489	0.29573104	0.023713995
1.963248028875775e-08	0.744536	-0.6643297	-0.06582121	-0.26824024	0.23934366	0.023713961
1.9720467941667333e-08	0.87968963	-0.470971	-0.06582141	-0.31693316	0.16968068	0.023714034
1.9808651780517412e-08	0.9658049	-0.25077587	-0.065821454	-0.34795868	0.09034914	0.023714047
1.989678910940663e-08	0.99769294	-0.01662603	-0.06582145	-0.35944724	0.00599	0.023714047
1.9984796639852997e-08	0.9737007	0.21811597	-0.065821394	-0.35080332	-0.07858248	0.023714028
2.0072870963219337e-08	0.8951782	0.4408214	-0.065821484	-0.3225134	-0.15881845	0.023714062
2.0160926062008748e-08	0.76655304	0.6387989	-0.06582149	-0.27617252	-0.23014545	0.023714064
2.0248998230838032e-08	0.5949779	0.8010424	-0.06582139	-0.2143577	-0.2885983	0.023714026
2.0337172861970453e-08	0.3898283	0.91853225	-0.065821715	-0.14044672	-0.33092734	0.023714144
2.0425302228705754e-08	0.16291566	0.984442	-0.06582169	-0.058694996	-0.35467324	0.023714136
2.0513456640438464e-08	-0.07319948	0.9951429	-0.0658216	0.026372192	-0.3585285	0.023714103
2.060148366589762e-08	-0.3048814	0.9501132	-0.065821566	0.10984218	-0.34230524	0.023714092
2.068957381653982e-08	-0.51965094	0.8518395	-0.06582157	0.187219	-0.3068994	0.023714093
2.0777616443529343e-08	-0.70521635	0.70593023	-0.06582174	0.25407425	-0.2543314	0.023714151
2.086566754853556e-08	-0.85132515	0.5204931	-0.06582157	0.30671406	-0.18752241	0.023714093
2.0953711835207058e-08	-0.9497733	0.30593827	-0.065821454	0.34218287	-0.110222965	0.023714047
2.1041746358062637e-08	-0.9950623	0.07428694	-0.06582148	0.3584995	-0.026763981	0.023714058
2.112975333756938e-08	-0.98468375	-0.1614482	-0.06582149	0.3547603	0.058166295	0.023714064
2.1217787970353583e-08	-0.9192117	-0.38822344	-0.065821454	0.3311721	0.13986853	0.023714047
2.1305870225732465e-08	-0.8022285	-0.59337777	-0.06582125	0.28902563	0.21378121	0.023713976
2.139383717933576e-08	-0.64054537	-0.7650942	-0.06582112	0.23077469	0.27564692	0.02371393
2.1481715894118154e-08	-0.44328764	-0.89395964	-0.06582107	0.15970698	0.32207435	0.02371391
2.1569704588682937e-08	-0.22102477	-0.9730445	-0.06582123	0.07963045	0.35056692	0.023713969
2.1657817545219712e-08	0.0139270155	-0.99773425	-0.06582128	-0.005017603	0.35946214	0.02371399
2.1745836986781494e-08	0.24785501	-0.9665587	-0.065821394	-0.08929681	0.34823024	0.023714028
2.1833897221389364e-08	0.46801594	-0.88126534	-0.065821484	-0.16861603	0.3175009	0.023714062
2.192198173671736e-08	0.6620225	-0.7465882	-0.06582156	-0.23851241	0.2689796	0.023714088
2.2010098380933197e-08	0.8189924	-0.57001686	-0.06582135	-0.29506528	0.2053648	0.023714012
2.209810048553497e-08	0.9299379	-0.3617776	-0.06582127	-0.33503658	0.13034067	0.023713982
2.2186127979524155e-08	0.9888955	-0.13324237	-0.06582132	-0.3562777	0.048004344	0.023714002
2.2274194444347638e-08	0.9925166	0.10285147	-0.06582131	-0.35758233	-0.037055165	0.023713998
2.2362219398148815e-08	0.9405981	0.33308092	-0.065821245	-0.3388772	-0.12000187	0.023713974
2.2450312840506988e-08	0.8359588	0.5448308	-0.065821365	-0.30117792	-0.19629076	0.023714017
2.25383303673112e-08	0.68462867	0.725914	-0.06582148	-0.24665692	-0.26153117	0.023714058
2.262639708491535e-08	0.4948889	0.8664598	-0.06582175	-0.17829779	-0.31216675	0.023714159
2.2714503808130682e-08	0.2773335	0.9585165	-0.065821655	-0.09991728	-0.3453328	0.023714121
2.28025013784271e-08	0.044527583	0.99683744	-0.06582153	-0.016042328	-0.35913903	0.023714077
2.2890589837546235e-08	-0.19100742	0.9793793	-0.065821454	0.06881584	-0.35284922	0.023714047
2.297866225416828e-08	-0.4158018	0.9070703	-0.0658213	0.14980441	-0.32679784	0.023713995
2.306659239251113e-08	-0.6170092	0.78419846	-0.06582148	0.2222951	-0.2825298	0.023714058
2.3154699656080438e-08	-0.7840674	0.61717576	-0.06582139	0.28248256	-0.22235511	0.023714026
2.3242761119018295e-08	-0.90712917	0.41567332	-0.06582153	0.32681906	-0.14975813	0.023714077
2.3330880677529274e-08	-0.9794306	0.19074397	-0.06582153	0.35286766	-0.06872094	0.023714077
2.3418996689248115e-08	-0.99682206	-0.044869635	-0.06582149	0.35913348	0.016165562	0.023714064
2.350704702563377e-08	-0.9583818	-0.27779835	-0.065821484	0.34528422	0.10008475	0.023714062
2.359508879493458e-08	-0.86630654	-0.49515715	-0.06582159	0.31211156	0.17839444	0.0237141
2.3683027309522885e-08	-0.7259385	-0.6846027	-0.06582164	0.26154	0.24664758	0.023714114
2.3771067090526712e-08	-0.5448101	-0.83597213	-0.065821566	0.19628331	0.3011827	0.023714092
2.3859213588671127e-08	-0.33292264	-0.94065416	-0.06582134	0.11994484	0.3388974	0.02371401
2.394710200118715e-08	-0.10304938	-0.99249613	-0.06582135	0.037126467	0.35757497	0.023714012
2.4035052844355976e-08	0.13273737	-0.98896325	-0.06582141	-0.04782241	0.35630214	0.023714034
2.4123075818955212e-08	0.36129177	-0.93012685	-0.0658214	-0.13016562	0.3351046	0.02371403
2.421107059821865e-08	0.5695726	-0.81930137	-0.06582129	-0.20520473	0.2951766	0.023713991
2.429916301647435e-08	0.746185	-0.66247696	-0.06582095	-0.26883435	0.23867616	0.023713868
2.4387124372973824e-08	0.88082415	-0.468846	-0.065820955	-0.31734192	0.1689151	0.023713868
2.4475209028025398e-08	0.96634066	-0.24870329	-0.06582108	-0.34815168	0.08960243	0.023713913
2.456323941633502e-08	0.9977221	-0.014773876	-0.06582122	-0.35945773	0.0053227087	0.023713969
2.4651307876889785e-08	0.9732582	0.2200822	-0.06582123	-0.35064393	-0.07929087	0.023713969
2.4739339646444398e-08	0.8943371	0.44252554	-0.065821074	-0.32221037	-0.15943241	0.023713913
2.482727775364218e-08	0.765538	0.6400152	-0.06582093	-0.27580684	-0.23058367	0.023713863
2.4915207041620693e-08	0.59401554	0.80175644	-0.06582087	-0.21401098	-0.28885555	0.023713842
2.500326572939719e-08	0.3890145	0.9188772	-0.065820776	-0.14015353	-0.33105162	0.023713805
2.5091197778415913e-08	0.16257009	0.9844993	-0.06582086	-0.058570497	-0.35469383	0.023713835
2.5179140444512953e-08	-0.072979026	0.9951592	-0.065821044	0.026292767	-0.3585344	0.023713902
2.5267232045003137e-08	-0.30483446	0.9501282	-0.06582115	0.10982528	-0.34231067	0.023713939
2.5355306665670825e-08	-0.51957226	0.8518875	-0.0658213	0.18719068	-0.3069167	0.023713995
2.5443260988345375e-08	-0.70498234	0.706164	-0.06582137	0.25398993	-0.25441566	0.02371402
2.5531294928720477e-08	-0.85112816	0.5208153	-0.06582145	0.30664307	-0.18763852	0.023714047
2.561943099506188e-08	-0.94973314	0.30606303	-0.065821484	0.34216833	-0.11026791	0.023714062
2.57075574462844e-08	-0.995071	0.074171014	-0.0658216	0.35850263	-0.026722213	0.023714103
2.5795653038669142e-08	-0.9846263	-0.16179831	-0.065821625	0.3547396	0.05829244	0.02371411
2.5883740693167128e-08	-0.9190179	-0.38868177	-0.065821506	0.33110234	0.14003366	0.02371407
2.5971748105266646e-08	-0.8020517	-0.59361666	-0.06582145	0.28896192	0.21386728	0.023714047
2.605980751046884e-08	-0.6401265	-0.76544464	-0.065821424	0.23062375	0.27577317	0.02371404
2.6147886153462333e-08	-0.44231558	-0.89444095	-0.0658216	0.15935676	0.32224777	0.023714103
2.623599101854551e-08	-0.21966112	-0.9733533	-0.06582147	0.079139166	0.3506782	0.023714056
2.6324011914478718e-08	0.015078422	-0.9977175	-0.06582143	-0.00543243	0.3594561	0.02371404
2.64120444919382e-08	0.2490049	-0.96626306	-0.06582151	-0.08971109	0.34812373	0.023714073
2.6500077011522636e-08	0.46899882	-0.8807427	-0.065821566	-0.16897015	0.3173126	0.023714092
2.6588131893800685e-08	0.66279566	-0.7459019	-0.06582133	-0.23879096	0.2687323	0.023714002
2.6676079954040908e-08	0.81932354	-0.56954074	-0.065821186	-0.2951846	0.20519325	0.023713954
2.6763917055733273e-08	0.9299872	-0.36165097	-0.065821335	-0.33505428	0.13029507	0.023714006
2.6852003435108936e-08	0.9889347	-0.13295044	-0.06582141	-0.35629183	0.04789917	0.023714034
2.6940153737490154e-08	0.9924629	0.103368975	-0.06582144	-0.35756296	-0.037241615	0.023714043
2.7028205636869513e-08	0.94039994	0.33363995	-0.06582144	-0.33880582	-0.12020327	0.023714043
2.7116220483868958e-08	0.8357498	0.54515123	-0.065821595	-0.3011026	-0.19640623	0.023714101
2.7204282585994182e-08	0.6842624	0.7262593	-0.06582162	-0.24652496	-0.2616555	0.023714108
2.7292497408107776e-08	0.49410588	0.8669066	-0.06582173	-0.17801568	-0.31232774	0.023714148
2.7380672306019392e-08	0.27629137	0.9588174	-0.06582156	-0.09954182	-0.34544122	0.023714088
2.7468749377027648e-08	0.043230474	0.99689454	-0.06582155	-0.015575007	-0.3591596	0.023714084
2.7556825991369473e-08	-0.19225042	0.97913605	-0.06582159	0.06926368	-0.3527616	0.0237141
2.76448734842612e-08	-0.4168924	0.90656954	-0.06582144	0.15019734	-0.32661745	0.023714043
2.7732875167911375e-08	-0.6181028	0.7833368	-0.06582147	0.22268909	-0.28221935	0.023714056
2.7820908323158473e-08	-0.784805	0.6162376	-0.065821454	0.2827483	-0.22201711	0.023714047